# vtk DataFile Version 3.0
vtk output
ASCII
DATASET UNSTRUCTURED_GRID
POINTS 70614 double
1.26385 -2.81544 0.328551
1.31954 -2.90669 0.271601
1.27202 -2.95019 0.23169
1.55523 -2.64231 0.443329
1.49602 -2.75083 0.373472
1.31954 -2.90669 0.271601
1.26385 -2.81544 0.328551
1.25274 -2.63066 0.445601
1.30719 -2.57584 0.481304
1.44116 -2.5527 0.498252
1.49793 -2.54288 0.501555
1.59677 -2.54784 0.494887
1.58895 -2.58205 0.47593
1.55523 -2.64231 0.443329
1.44116 -2.5527 0.498252
1.27202 -2.95019 0.23169
1.27488 -2.97646 0
1.25491 -2.62233 0
1.25274 -2.63066 0.445601
1.26385 -2.81544 0.328551
1.3019 -2.5746 0
1.49321 -2.54145 0
1.49793 -2.54288 0.501555
1.44116 -2.5527 0.498252
1.30719 -2.57584 0.481304
1.49321 -2.54145 0
1.63648 -2.54866 0
1.63765 -2.54927 0.233897
1.59677 -2.54784 0.494887
1.49793 -2.54288 0.501555
1.25491 -2.62233 0
1.3019 -2.5746 0
1.30719 -2.57584 0.481304
1.25274 -2.63066 0.445601
1.66817 -2.56076 0
1.65858 -2.55716 0.0859883
1.63765 -2.54927 0.233897
1.63648 -2.54866 0
1.58895 -2.58205 0.47593
1.65858 -2.55716 0.0859883
1.66817 -2.56076 0
1.54208 -2.75952 0
1.49602 -2.75083 0.373472
1.55523 -2.64231 0.443329
1.65858 -2.55716 0.0859883
1.58895 -2.58205 0.47593
1.59677 -2.54784 0.494887
1.63765 -2.54927 0.233897
1.49602 -2.75083 0.373472
1.54208 -2.75952 0
1.27488 -2.97646 0
1.27202 -2.95019 0.23169
1.31954 -2.90669 0.271601
1.27488 -2.97646 0
1.54208 -2.75952 0
1.66817 -2.56076 0
1.63648 -2.54866 0
1.49321 -2.54145 0
1.3019 -2.5746 0
1.25491 -2.62233 0
2.81098 2.33542 0.661311
2.6588 2.38424 0.667896
2.6938 2.65152 0.492662
3 2.59462 0.453629
3 2.50927 0.506866
2.77317 2.37053 0.0716522
2.83285 2.34966 0.113293
2.9977 2.50204 0.0465523
2.9751 2.54551 0
2.84719 2.48712 0
2.9977 2.50204 0.0465523
3 2.50417 0.0458527
3 2.55944 0
2.9751 2.54551 0
2.84719 2.48712 0
2.75987 2.46089 0
2.7368 2.38294 0.0539285
2.77317 2.37053 0.0716522
2.68478 2.40033 0.0381687
2.7368 2.38294 0.0539285
2.75987 2.46089 0
2.69199 2.45466 0
3 2.50927 0.506866
3 2.50417 0.0458527
2.9977 2.50204 0.0465523
2.83285 2.34966 0.113293
2.81098 2.33542 0.661311
2.6938 2.65152 0.492662
2.70995 2.62464 0
3 2.57254 0
3 2.59462 0.453629
2.69199 2.45466 0
2.70995 2.62464 0
2.6938 2.65152 0.492662
2.6588 2.38424 0.667896
2.68478 2.40033 0.0381687
2.68478 2.40033 0.0381687
2.6588 2.38424 0.667896
2.81098 2.33542 0.661311
2.83285 2.34966 0.113293
2.77317 2.37053 0.0716522
2.7368 2.38294 0.0539285
3 2.59462 0.453629
3 2.57254 0
3 2.55944 0
3 2.50417 0.0458527
3 2.50927 0.506866
3 2.55944 0
3 2.57254 0
2.70995 2.62464 0
2.69199 2.45466 0
2.75987 2.46089 0
2.84719 2.48712 0
2.9751 2.54551 0
-2.57435 1.10415 0.521877
-2.47897 1.11829 0.563693
-2.58074 1.0945 0.515436
-2.97201 1.12895 0.162775
-2.88762 1.17241 0.242235
-2.57699 1.2978 0.532394
-2.57435 1.10415 0.521877
-2.58074 1.0945 0.515436
-3 1.00204 0.128924
-3 1.09637 0.135214
-2.57699 1.2978 0.532394
-2.50915 1.32522 0.563182
-2.38941 1.25452 0.610356
-2.44186 1.127 0.580154
-2.47897 1.11829 0.563693
-2.57435 1.10415 0.521877
-2.58906 1.2633 0
-2.43719 1.21555 0.0960139
-2.42157 1.25314 0.107425
-2.53125 1.31686 0.0391399
-2.59071 1.29284 0
-2.58906 1.2633 0
-2.71314 1.07694 0
-2.46864 1.13434 0.107838
-2.43719 1.21555 0.0960139
-3 1.09637 0.135214
-3 1.11238 0
-2.99838 1.11446 0
-2.97201 1.12895 0.162775
-2.99838 1.11446 0
-2.86949 1.18001 0
-2.88762 1.17241 0.242235
-2.97201 1.12895 0.162775
-2.46864 1.13434 0.107838
-2.44186 1.127 0.580154
-2.38941 1.25452 0.610356
-2.42157 1.25314 0.107425
-2.43719 1.21555 0.0960139
-2.50915 1.32522 0.563182
-2.53125 1.31686 0.0391399
-2.42157 1.25314 0.107425
-2.38941 1.25452 0.610356
-2.88762 1.17241 0.242235
-2.86949 1.18001 0
-2.59071 1.29284 0
-2.53125 1.31686 0.0391399
-2.50915 1.32522 0.563182
-2.57699 1.2978 0.532394
-2.71314 1.07694 0
-3 1.00585 0
-3 1.00204 0.128924
-2.58074 1.0945 0.515436
-2.47897 1.11829 0.563693
-2.44186 1.127 0.580154
-2.46864 1.13434 0.107838
-3 1.00204 0.128924
-3 1.00585 0
-3 1.11238 0
-3 1.09637 0.135214
-2.59071 1.29284 0
-2.86949 1.18001 0
-2.99838 1.11446 0
-3 1.11238 0
-3 1.00585 0
-2.71314 1.07694 0
-2.58906 1.2633 0
-1.2073 2.14597 0.677592
-1.22616 2.14531 0.685363
-1.2636 1.9645 0.787347
-1.20636 1.98788 0.753462
-1.20575 2.09892 0.699669
-1.2073 2.14597 0.677592
-1.19043 2.2185 0.645115
-1.15277 2.40444 0.564086
-1.15876 2.4464 0.551591
-1.20148 2.30599 0.618485
-1.22616 2.14531 0.685363
-1.15277 2.40444 0.564086
-1.02054 2.39153 0.581138
-1.14639 2.50131 0.537285
-1.15876 2.4464 0.551591
-1.20636 1.98788 0.753462
-0.99409 2.09115 0.720427
-1.20575 2.09892 0.699669
-0.899274 2.13742 0.706508
-0.800303 2.1859 0.692936
-1.02054 2.39153 0.581138
-1.15277 2.40444 0.564086
-1.19043 2.2185 0.645115
-1.20575 2.09892 0.699669
-0.99409 2.09115 0.720427
-0.899274 2.13742 0.706508
-1.19043 2.2185 0.645115
-1.2073 2.14597 0.677592
-1.14639 2.50131 0.537285
-1.32202 2.45271 1
-1.33948 2.31832 1
-1.20148 2.30599 0.618485
-1.15876 2.4464 0.551591
-1.34054 1.96293 1
-1.2636 1.9645 0.787347
-1.22616 2.14531 0.685363
-1.20148 2.30599 0.618485
-1.33948 2.31832 1
-1.08134 2.27506 1
-0.84491 2.18067 0.792002
-1.03346 2.12087 1
-0.800303 2.1859 0.692936
-0.84491 2.18067 0.792002
-1.08134 2.27506 1
-1.32202 2.45271 1
-1.14639 2.50131 0.537285
-1.02054 2.39153 0.581138
-1.34054 1.96293 1
-1.03346 2.12087 1
-0.84491 2.18067 0.792002
-0.800303 2.1859 0.692936
-0.899274 2.13742 0.706508
-0.99409 2.09115 0.720427
-1.20636 1.98788 0.753462
-1.2636 1.9645 0.787347
-1.32202 2.45271 1
-1.08134 2.27506 1
-1.03346 2.12087 1
-1.34054 1.96293 1
-1.33948 2.31832 1
2.71674 1.20512 0.60556
2.72088 1.22047 0.617026
2.62952 1.28518 0.592647
2.44831 1.24815 0.450555
2.44691 1.23451 0.44189
2.63744 1.2868 0.599557
2.62952 1.28518 0.592647
2.72088 1.22047 0.617026
2.74292 1.30425 0.688845
2.41986 1.03603 0.85893
2.46397 0.918003 0.880188
2.40102 0.968765 0.846221
2.47552 0.90867 0.886078
2.46397 0.918003 0.880188
2.41986 1.03603 0.85893
2.48124 1.25682 0.894283
2.60786 1.28254 0.960767
2.68266 1.29487 1
2.68581 1.18486 1
2.61896 0.966018 0.961819
2.68581 1.18486 1
2.72269 1.30144 1
2.74292 1.30425 0.688845
2.72088 1.22047 0.617026
2.71674 1.20512 0.60556
2.64335 0.965325 0.565799
2.61896 0.966018 0.961819
2.64335 0.965325 0.565799
2.4654 0.893866 0.4596
2.47552 0.90867 0.886078
2.61896 0.966018 0.961819
2.37035 0.970109 0.400678
2.40102 0.968765 0.846221
2.46397 0.918003 0.880188
2.47552 0.90867 0.886078
2.4654 0.893866 0.4596
2.40102 0.968765 0.846221
2.37035 0.970109 0.400678
2.44347 1.23392 0.43982
2.44799 1.24809 0.450355
2.48124 1.25682 0.894283
2.41986 1.03603 0.85893
2.44799 1.24809 0.450355
2.44831 1.24815 0.450555
2.62952 1.28518 0.592647
2.63744 1.2868 0.599557
2.60786 1.28254 0.960767
2.48124 1.25682 0.894283
2.74292 1.30425 0.688845
2.72269 1.30144 1
2.68266 1.29487 1
2.60786 1.28254 0.960767
2.63744 1.2868 0.599557
2.44691 1.23451 0.44189
2.44347 1.23392 0.43982
2.37035 0.970109 0.400678
2.4654 0.893866 0.4596
2.64335 0.965325 0.565799
2.71674 1.20512 0.60556
2.44831 1.24815 0.450555
2.44799 1.24809 0.450355
2.44347 1.23392 0.43982
2.44691 1.23451 0.44189
2.68266 1.29487 1
2.72269 1.30144 1
2.68581 1.18486 1
-2.13073 -0.0232995 0
-1.93838 -0.286466 0
-1.99785 -0.204987 0.0568839
-2.08794 -0.081566 0.134643
-2.08939 -0.0795868 0.133947
-2.08794 -0.081566 0.134643
-2.09034 -0.0785187 0.136724
-2.08939 -0.0795868 0.133947
-2.09034 -0.0785187 0.136724
-2.09598 -0.0716999 0.141663
-2.2312 0.101325 0
-2.13073 -0.0232995 0
-2.08939 -0.0795868 0.133947
-2.37779 -0.0736744 0.323775
-2.37796 -0.0736712 0.323861
-2.40213 0.0314285 0.19478
-2.41829 0.182126 0
-2.31606 0.142382 0
-2.31606 0.142382 0
-2.2312 0.101325 0
-2.09598 -0.0716999 0.141663
-2.15669 -0.0874889 0.201122
-2.2542 -0.0872811 0.262965
-2.37779 -0.0736744 0.323775
-2.13268 -0.260884 0.190432
-2.14965 -0.249487 0.205921
-2.15669 -0.0874889 0.201122
-2.09598 -0.0716999 0.141663
-2.09034 -0.0785187 0.136724
-2.08794 -0.081566 0.134643
-1.99785 -0.204987 0.0568839
-2.02622 -0.443919 0.089311
-2.03938 -0.455971 0.101526
-2.03703 -0.440389 0.0998619
-2.03703 -0.440389 0.0998619
-2.13268 -0.260884 0.190432
-1.99785 -0.204987 0.0568839
-1.93838 -0.286466 0
-1.93703 -0.355957 0
-2.02622 -0.443919 0.089311
-2.26054 -0.586781 0.295551
-2.14965 -0.249487 0.205921
-2.13268 -0.260884 0.190432
-2.03703 -0.440389 0.0998619
-2.03938 -0.455971 0.101526
-2.1574 -0.557401 0.204167
-2.25213 -0.623131 0.287001
-2.14965 -0.249487 0.205921
-2.26054 -0.586781 0.295551
-2.30286 -0.416544 0.312656
-2.2542 -0.0872811 0.262965
-2.15669 -0.0874889 0.201122
-2.30286 -0.416544 0.312656
-2.37561 -0.131045 0.3271
-2.37796 -0.0736712 0.323861
-2.37779 -0.0736744 0.323775
-2.2542 -0.0872811 0.262965
-2.1574 -0.557401 0.204167
-2.28384 -0.547804 0.191338
-2.25213 -0.623131 0.287001
-2.30985 -0.481647 0.122058
-2.28384 -0.547804 0.191338
-2.1574 -0.557401 0.204167
-2.03938 -0.455971 0.101526
-2.02622 -0.443919 0.089311
-1.93703 -0.355957 0
-2.25722 -0.362943 0
-2.25722 -0.362943 0
-2.35249 -0.331509 0
-2.34207 -0.392292 0.0514437
-2.30985 -0.481647 0.122058
-2.37561 -0.131045 0.3271
-2.40059 -0.107839 0.176801
-2.40432 -0.0860297 0.158005
-2.40213 0.0314285 0.19478
-2.37796 -0.0736712 0.323861
-2.41723 0.00233328 0
-2.41829 0.182126 0
-2.40213 0.0314285 0.19478
-2.40432 -0.0860297 0.158005
-2.25213 -0.623131 0.287001
-2.28384 -0.547804 0.191338
-2.30985 -0.481647 0.122058
-2.34207 -0.392292 0.0514437
-2.40059 -0.107839 0.176801
-2.37561 -0.131045 0.3271
-2.30286 -0.416544 0.312656
-2.26054 -0.586781 0.295551
-2.35249 -0.331509 0
-2.41723 0.00233328 0
-2.40432 -0.0860297 0.158005
-2.40059 -0.107839 0.176801
-2.34207 -0.392292 0.0514437
-2.41829 0.182126 0
-2.41723 0.00233328 0
-2.35249 -0.331509 0
-2.25722 -0.362943 0
-1.93703 -0.355957 0
-1.93838 -0.286466 0
-2.13073 -0.0232995 0
-2.2312 0.101325 0
-2.31606 0.142382 0
-0.745612 1.3283 1
-0.747627 1.29369 0.967794
-0.790107 1.23339 1
-0.916718 1.35312 0.643577
-0.856582 1.4447 0.5886
-0.764908 1.62498 0.480674
-0.884651 1.76417 0.399532
-1.03874 1.71365 0.431246
[...]
CELL_DATA 13769
FIELD FieldData 6
weight 1 13769 float
 14.7636 14.7636 14.7636 14.7636 14.7636 14.7636 14.7636 14.7636 14.7636 14.7636 14.7636 14.7636 16.5626 16.5626 16.5626 16.5626 16.5626 16.5626 16.5626 16.5626 16.5626 16.5626 16.5626 14.4453 14.4453 14.4453 14.4453 14.4453 14.4453 14.4453 14.4453 14.4453 14.4453 14.4453 14.4453 14.4453 14.784 14.784 14.784 14.784 14.784 14.784 14.784 14.784 14.784 14.784 14.784 14.784 13.9534 13.9534 13.9534 13.9534 13.9534 13.9534 13.9534 13.9534 13.9534 13.9534 13.9534 13.9534 13.9534 15.0729 15.0729 15.0729 15.0729 15.0729 15.0729 15.0729 15.0729 15.0729 15.0729 15.0729 15.0729 15.0729 15.0729 15.0729 15.0729 15.0729 15.0729 15.0729 13.6664 13.6664 13.6664 13.6664 13.6664 13.6664 13.6664 13.6664 13.6664 13.6664 13.6664 13.6664 13.6664 13.8883 13.8883 13.8883 13.8883 13.8883 13.8883 13.8883 13.8883 13.8883 13.8883 13.8883 13.8883 13.8883 12.4214 12.4214 12.4214 12.4214 12.4214 12.4214 12.4214 12.4214 12.4214 12.4214 12.4214 14.9788 14.9788 14.9788 14.9788 14.9788 14.9788 14.9788 14.9788 14.9788 14.9788 14.9788 14.9788 14.9788 14.9788 14.9788 14.9788 12.4785 12.4785 12.4785 12.4785 12.4785 12.4785 12.4785 12.4785 12.4785 12.4785 12.4785 12.4785 12.4785 12.4785 12.4785 12.4785 12.4785 12.4785 12.4785 12.4785 16.2111 16.2111 16.2111 16.2111 16.2111 16.2111 16.2111 16.2111 16.2111 13.1852 13.1852 13.1852 13.1852 13.1852 13.1852 13.1852 13.1852 13.1852 13.1852 13.1852 13.1852 13.1852 13.1852 13.1852 13.1852 13.1852 13.1852 13.1852 13.1852 14.5091 14.5091 14.5091 14.5091 14.5091 14.5091 14.5091 14.5091 14.5091 14.5091 14.5091 14.5091 14.5091 14.5091 16.5299 16.5299 16.5299 16.5299 16.5299 16.5299 16.5299 16.5299 16.5299 16.5299 16.5299 16.5299 16.5299 17.6177 17.6177 17.6177 17.6177 17.6177 17.6177 17.6177 17.6177 17.6177 17.6177 17.6177 17.6177 17.6177 17.6177 17.6177 14.7196 14.7196 14.7196 14.7196 14.7196 14.7196 14.7196 14.7196 14.7196 14.7196 14.7196 14.7196 14.7196 14.7196 14.7196 12.4125 12.4125 12.4125 12.4125 12.4125 12.4125 12.4125 12.4125 12.4125 12.4125 12.4125 12.4125 12.4125 12.4125 16.8599 16.8599 16.8599 16.8599 16.8599 16.8599 16.8599 16.8599 16.8599 16.8599 16.8599 15.589 15.589 15.589 15.589 15.589 15.589 15.589 15.589 15.589 15.589 15.589 15.589 15.589 15.589 15.589 15.589 15.589 17.3874 17.3874 17.3874 17.3874 17.3874 17.3874 17.3874 17.3874 14.2482 14.2482 14.2482 14.2482 14.2482 14.2482 14.2482 14.2482 14.2482 14.2482 14.2482 14.2482 14.2482 14.2482 14.2482 14.2482 14.2482 14.2482 14.2482 14.2482 14.5502 14.5502 14.5502 14.5502 14.5502 14.5502 14.5502 14.5502 14.5502 14.5502 14.5502 14.5502 14.5502 14.5502 14.5502 14.5647 14.5647 14.5647 14.5647 14.5647 14.5647 14.5647 14.5647 14.5647 14.5647 14.5647 14.5647 14.5647 14.5647 14.5647 14.5647 14.5647 13.6824 13.6824 13.6824 13.6824 13.6824 13.6824 13.6824 13.6824 13.6824 13.6824 13.6824 13.6824 13.6824 13.6824 13.6824 13.6824 16.9 16.9 16.9 16.9 16.9 16.9 16.9 16.9 16.9 16.9 16.9 16.9 16.9 14.6027 14.6027 14.6027 14.6027 14.6027 14.6027 14.6027 14.6027 14.6027 14.6027 14.6027 14.6027 14.6027 14.2658 14.2658 14.2658 14.2658 14.2658 14.2658 14.2658 14.2658 14.2658 14.2658 14.2658 14.2658 14.2658 14.2658 14.2658 13.004 13.004 13.004 13.004 13.004 13.004 13.004 13.004 13.004 13.004 13.004 13.004 13.004 14.537 14.537 14.537 14.537 14.537 14.537 14.537 14.537 14.537 14.537 14.0571 14.0571 14.0571 14.0571 14.0571 14.0571 14.0571 14.0571 14.0571 14.0571 14.0571 14.0571 12.1963 12.1963 12.1963 12.1963 12.1963 12.1963 12.1963 12.1963 12.1963 12.1963 12.1963 12.1963 12.1963 12.1963 14.2675 14.2675 14.2675 14.2675 14.2675 14.2675 14.2675 14.2675 14.2675 14.2675 14.2675 14.2675 14.6882 14.6882 14.6882 14.6882 14.6882 14.6882 14.6882 14.6882 14.6882 14.6882 14.6882 14.6882 14.6882 14.6882 13.2309 13.2309 13.2309 13.2309 13.2309 13.2309 13.2309 13.2309 13.2309 13.2309 13.2309 13.2309 13.2309 13.2309 13.2309 15.8699 15.8699 15.8699 15.8699 15.8699 15.8699 15.8699 15.8699 15.8699 15.8699 15.8699 15.8699 14.9743 14.9743 14.9743 14.9743 14.9743 14.9743 14.9743 14.9743 14.9743 14.9743 14.9743 14.9743 14.9743 14.9743 14.8629 14.8629 14.8629 14.8629 14.8629 14.8629 14.8629 14.8629 14.8629 14.8629 15.8057 15.8057 15.8057 15.8057 15.8057 15.8057 15.8057 15.8057 15.8057 15.8057 15.8057 15.8747 15.8747 15.8747 15.8747 15.8747 15.8747 15.8747 15.8747 15.8747 15.8747 15.8747 15.8747 15.8747 15.8747 15.1358 15.1358 15.1358 15.1358 15.1358 15.1358 15.1358 15.1358 15.2517 15.2517 15.2517 15.2517 15.2517 15.2517 15.2517 15.2517 15.2517 15.2517 15.2517 15.2517 15.2517 15.2517 13.3826 13.3826 13.3826 13.3826 13.3826 13.3826 13.3826 13.3826 13.3826 13.3826 13.3826 13.3826 13.3826 13.3826 13.3826 16.1825 16.1825 16.1825 16.1825 16.1825 16.1825 16.1825 16.1825 16.1825 16.1825 16.1825 16.1825 16.1825 13.0244 13.0244 13.0244 13.0244 13.0244 13.0244 13.0244 13.0244 13.0244 13.0244 13.0244 13.0244 13.0244 13.0244 13.0244 13.0244 15.8542 15.8542 15.8542 15.8542 15.8542 15.8542 15.8542 15.8542 15.8542 15.8542 15.8542 13.977 13.977 13.977 13.977 13.977 13.977 13.977 13.977 13.977 13.977 13.977 13.977 13.977 13.977 13.977 13.977 13.977 14.4237 14.4237 14.4237 14.4237 14.4237 14.4237 14.4237 14.4237 14.4237 14.4237 14.4237 14.4237 13.8944 13.8944 13.8944 13.8944 13.8944 13.8944 13.8944 13.8944 13.8944 13.8944 13.8944 13.8944 13.8944 15.8615 15.8615 15.8615 15.8615 15.8615 15.8615 15.8615 15.8615 15.8615 15.8615 15.8615 15.8615 15.8615 15.8615 17.3573 17.3573 17.3573 17.3573 17.3573 17.3573 17.3573 17.3573 17.3573 17.3573 17.3573 17.3573 17.3573 17.3573 17.3573 17.3573 17.3573 13.5059 13.5059 13.5059 13.5059 13.5059 13.5059 13.5059 13.5059 13.5059 13.5059 13.5059 14.4816 14.4816 14.4816 14.4816 14.4816 14.4816 14.4816 14.4816 14.4816 14.4816 15.9799 15.9799 15.9799 15.9799 15.9799 15.9799 15.9799 15.9799 15.9799 15.9799 15.9799 15.9799 15.7061 15.7061 15.7061 15.7061 15.7061 15.7061 15.7061 15.7061 15.7061 15.7061 15.7061 15.7061 15.7061 15.7061 15.7061 15.7061 15.7061 15.7061 14.3518 14.3518 14.3518 14.3518 14.3518 14.3518 14.3518 14.3518 14.3518 14.3518 14.3518 15.719 15.719 15.719 15.719 15.719 15.719 15.719 15.719 15.719 15.719 15.719 15.719 15.719 15.719 14.0759 14.0759 14.0759 14.0759 14.0759 14.0759 14.0759 14.0759 14.0759 14.0759 14.0759 14.0759 14.0759 14.0759 12.9711 12.9711 12.9711 12.9711 12.9711 12.9711 12.9711 12.9711 12.9711 12.9711 12.9711 12.9711 12.9711 12.9711 12.9711 12.9711 12.9711 12.9711 13.4451 13.4451 13.4451 13.4451 13.4451 13.4451 13.4451 13.4451 13.4451 13.4451 13.4451 15.7241 15.7241 15.7241 15.7241 15.7241 15.7241 15.7241 15.7241 11.5013 11.5013 11.5013 11.5013 11.5013 11.5013 11.5013 11.5013 11.5013 11.5013 11.5013 11.5013 11.5013 11.5013 11.5013 15.3084 15.3084 15.3084 15.3084 15.3084 15.3084 15.3084 15.3084 15.3084 15.3084 15.3084 15.3084 15.3084 15.3084 15.3084 15.3084 14.2687 14.2687 14.2687 14.2687 14.2687 14.2687 14.2687 14.2687 14.2687 14.2687 14.2687 14.2687 14.2687 14.2687 13.3726 13.3726 13.3726 13.3726 13.3726 13.3726 13.3726 13.3726 13.3726 13.3726 13.239 13.239 13.239 13.239 13.239 13.239 13.239 13.239 13.239 13.9028 13.9028 13.9028 13.9028 13.9028 13.9028 13.9028 13.9028 13.9028 13.9028 13.9028 13.9028 16.1403 16.1403 16.1403 16.1403 16.1403 16.1403 16.1403 16.1403 15.8214 15.8214 15.8214 15.8214 15.8214 15.8214 15.8214 15.8214 15.8214 15.8214 15.8214 18.9437 18.9437 18.9437 18.9437 18.9437 18.9437 18.9437 14.2492 14.2492 14.2492 14.2492 14.2492 14.2492 14.2492 14.2492 14.2492 14.2492 14.2492 15.796 15.796 15.796 15.796 15.796 15.796 15.796 15.796 15.796 15.796 15.796 15.796 15.796 13.1998 13.1998 13.1998 13.1998 13.1998 13.1998 13.1998 13.1998 13.1998 13.1998 13.1998 13.1998 13.1998 13.1998 13.1998 13.1998 16.327 16.327 16.327 16.327 16.327 16.327 16.327 16.327 16.327 16.327 16.327 16.327 16.327 13.6392 13.6392 13.6392 13.6392 13.6392 13.6392 13.6392 13.6392 13.6392 13.6392 13.6392 13.6392 13.6392 13.6392 13.6392 14.999 14.999 14.999 14.999 14.999 14.999 14.999 14.999 14.999 14.999 15.6118 15.6118 15.6118 15.6118 15.6118 15.6118 15.6118 15.6118 15.6118 15.6118 15.6118 15.6118 18.7456 18.7456 18.7456 18.7456 18.7456 18.7456 18.7456 18.7456 18.7456 12.7571 12.7571 12.7571 12.7571 12.7571 12.7571 12.7571 12.7571 12.7571 12.7571 12.7571 12.7571 12.7571 12.7571 12.7571 12.7571 12.7571 12.7571 16.0208 16.0208 16.0208 16.0208 16.0208 16.0208 16.0208 16.0208 16.0208 13.3022 13.3022 13.3022 13.3022 13.3022 13.3022 13.3022 13.3022 13.3022 13.3022 13.3022 13.3022 13.3022 11.5076 11.5076 11.5076 11.5076 11.5076 11.5076 11.5076 11.5076 11.5076 11.5076 11.5076 11.5076 11.5076 11.5076 11.5076 11.5076 17.3589 17.3589 17.3589 17.3589 17.3589 17.3589 17.3589 17.3589 17.3589 17.3589 13.5698 13.5698 13.5698 13.5698 13.5698 13.5698 13.5698 13.5698 13.5698 13.5698 13.5698 13.5698 13.5698 13.5698 13.5698 15.3909 15.3909 15.3909 15.3909 15.3909 15.3909 15.3909 15.3909 15.3909 15.3909 13.696 13.696 13.696 13.696 13.696 13.696 13.696 13.696 13.696 13.696 13.696 13.696 13.696 13.0295 13.0295 13.0295 13.0295 13.0295 13.0295 13.0295 13.0295 13.0295 13.0295 13.0295 14.5997 14.5997 14.5997 14.5997 14.5997 14.5997 14.5997 14.5997 14.5997 14.5997 14.5997 14.5997 14.5997 14.5997 18.5697 18.5697 18.5697 18.5697 18.5697 18.5697 18.5697 18.5697 18.5697 18.5697 18.5697 11.5162 11.5162 11.5162 11.5162 11.5162 11.5162 11.5162 11.5162 11.5162 11.5162 11.5162 11.5162 11.5162 13.0998 13.0998 13.0998 13.0998 13.0998 13.0998 13.0998 13.0998 13.0998 13.0998 13.0998 13.0998 13.0998 13.2486 13.2486 13.2486 13.2486 13.2486 13.2486 13.2486 13.2486 13.2486 13.2486 13.2486 13.2486 13.2486 11.5404 11.5404 11.5404 11.5404 11.5404 11.5404 11.5404 11.5404 11.5404 11.5404 11.5404 11.5404 11.5404 11.5404 15.2839 15.2839 15.2839 15.2839 15.2839 15.2839 15.2839 15.2839 15.2839 15.2839 13.6447 13.6447 13.6447 13.6447 13.6447 13.6447 13.6447 13.6447 13.6447 13.6447 13.6447 13.6447 13.6447 13.6447 13.6447 13.6447 13.6447 16.0884 16.0884 16.0884 16.0884 16.0884 16.0884 16.0884 16.0884 16.0884 16.0884 16.0884 16.0884 16.0884 16.0884 16.0884 16.0884 11.5175 11.5175 11.5175 11.5175 11.5175 11.5175 11.5175 11.5175 11.5175 11.5175 11.5175 11.5175 11.5175 11.5175 11.5175 15.1344 15.1344 15.1344 15.1344 15.1344 15.1344 15.1344 15.1344 15.1344 15.1344 15.1344 15.1344 15.1344 15.1344 15.1344 15.1344 15.1344 15.1344 18.5118 18.5118 18.5118 18.5118 18.5118 18.5118 18.5118 18.5118 18.5118 18.5118 18.5118 18.5118 15.3283 15.3283 15.3283 15.3283 15.3283 15.3283 15.3283 15.3283 15.3283 15.3283 13.591 13.591 13.591 13.591 13.591 13.591 13.591 13.591 13.591 13.591 13.591 13.591 13.591 13.591 18.1049 18.1049 18.1049 18.1049 18.1049 18.1049 18.1049 18.1049 18.1049 18.1049 18.1049 18.1049 18.1049 18.1049 18.1049 18.1049 11.5262 11.5262 11.5262 11.5262 11.5262 11.5262 11.5262 11.5262 11.5262 11.5262 11.5262 11.5262 11.5262 11.5262 11.5262 11.5262 14.4772 14.4772 14.4772 14.4772 14.4772 14.4772 14.4772 14.4772 14.4772 11.5136 11.5136 11.5136 11.5136 11.5136 11.5136 11.5136 11.5136 11.5136 11.5136 11.5136 11.5136 11.5136 11.5136 11.5136 11.5136 17.8066 17.8066 17.8066 17.8066 17.8066 17.8066 17.8066 17.8066 17.8066 17.8066 14.5618 14.5618 14.5618 14.5618 14.5618 14.5618 14.5618 14.5618 14.5618 14.5618 14.5618 14.5618 14.5618 14.5618 15.9433 15.9433 15.9433 15.9433 15.9433 15.9433 15.9433 15.9433 15.9433 15.9433 15.9433 15.9433 15.9433 15.9433 15.9433 15.9433 13.8606 13.8606 13.8606 13.8606 13.8606 13.8606 13.8606 13.8606 13.8606 13.8606 13.8606 13.8606 13.4377 13.4377 13.4377 13.4377 13.4377 13.4377 13.4377 13.4377 13.4377 13.4377 13.4377 13.4377 13.4377 13.4377 12.9468 12.9468 12.9468 12.9468 12.9468 12.9468 12.9468 12.9468 12.9468 12.9468 12.9468 12.9468 12.9468 12.9468 12.9468 12.9468 14.5328 14.5328 14.5328 14.5328 14.5328 14.5328 14.5328 14.5328 14.5328 14.5328 14.5328 14.5328 14.5328 14.5328 14.5328 13.6333 13.6333 13.6333 13.6333 13.6333 13.6333 13.6333 13.6333 13.6333 13.6333 13.6333 13.6333 11.5066 11.5066 11.5066 11.5066 11.5066 11.5066 11.5066 11.5066 11.5066 11.5066 11.5066 11.5066 11.5066 11.5066 11.5066 11.5066 15.0991 15.0991 15.0991 15.0991 15.0991 15.0991 15.0991 15.0991 15.0991 15.0991 15.0991 15.0991 15.0991 17.7241 17.7241 17.7241 17.7241 17.7241 17.7241 17.7241 17.7241 17.7241 17.7241 17.7241 17.7241 17.7241 17.7241 17.7241 17.7241 15.147 15.147 15.147 15.147 15.147 15.147 15.147 15.147 15.147 15.147 15.147 15.147 15.147 13.9264 13.9264 13.9264 13.9264 13.9264 13.9264 13.9264 13.9264 13.9264 13.9264 13.9264 13.9264 13.9264 13.9264 13.9264 13.9264 13.9264 13.9264 13.6885 13.6885 13.6885 13.6885 13.6885 13.6885 13.6885 13.6885 13.6885 13.6885 13.6885 13.6885 13.6885 13.6885 13.6885 14.7298 14.7298 14.7298 14.7298 14.7298 14.7298 14.7298 14.7298 14.7298 14.7298 14.7298 11.5376 11.5376 11.5376 11.5376 11.5376 11.5376 11.5376 11.5376 11.5376 11.5376 11.5376 11.5376 11.5376 11.5376 11.5376 11.5376 11.5017 11.5017 11.5017 11.5017 11.5017 11.5017 11.5017 11.5017 11.5017 11.5017 11.5017 11.5017 11.5017 11.5017 11.5017 11.5017 11.5017 11.5017 15.9519 15.9519 15.9519 15.9519 15.9519 15.9519 15.9519 15.9519 15.9519 15.9519 15.9519 15.9519 15.9519 15.6201 15.6201 15.6201 15.6201 15.6201 15.6201 15.6201 15.6201 15.6201 15.6201 15.6201 15.6201 15.6201 15.6201 15.6201 15.6201 15.6201 15.6201 15.6201 15.6201 15.6201 13.9106 13.9106 13.9106 13.9106 13.9106 13.9106 13.9106 13.9106 13.9106 13.9106 13.9106 13.9106 13.9106 13.9106 12.9539 12.9539 12.9539 12.9539 12.9539 12.9539 12.9539 12.9539 12.9539 12.9539 12.9539 12.9539 12.9539 12.9539 15.2462 15.2462 15.2462 15.2462 15.2462 15.2462 15.2462 15.2462 15.2462 15.2462 15.2462 20.2474 20.2474 20.2474 20.2474 20.2474 20.2474 20.2474 20.2474 20.2474 13.5795 13.5795 13.5795 13.5795 13.5795 13.5795 13.5795 13.5795 13.5795 13.5795 15.1355 15.1355 15.1355 15.1355 15.1355 15.1355 15.1355 15.1355 15.1355 15.1355 15.1355 15.1355 15.1355 15.1355 15.1355 13.4092 13.4092 13.4092 13.4092 13.4092 13.4092 13.4092 13.4092 13.4092 13.4092 13.4438 13.4438 13.4438 13.4438 13.4438 13.4438 13.4438 13.4438 13.4438 13.4438 13.4438 17.4243 17.4243 17.4243 17.4243 17.4243 17.4243 17.4243 17.4243 17.4243 17.4243 17.4243 17.4243 17.4243 17.4243 17.4243 11.5379 11.5379 11.5379 11.5379 11.5379 11.5379 11.5379 11.5379 11.5379 11.5379 11.5379 11.5379 11.5379 11.5379 11.5379 11.5379 11.5379 11.5379 13.7512 13.7512 13.7512 13.7512 13.7512 13.7512 13.7512 13.7512 13.7512 13.7512 13.7512 13.7512 13.7512 13.7512 13.7512 11.4713 11.4713 11.4713 11.4713 11.4713 11.4713 11.4713 11.4713 11.4713 11.4713 11.4713 11.4713 11.4713 15.912 15.912 15.912 15.912 15.912 15.912 15.912 15.912 15.912 15.912 15.912 13.442 13.442 13.442 13.442 13.442 13.442 13.442 13.442 13.442 13.442 13.442 13.442 13.9182 13.9182 13.9182 13.9182 13.9182 13.9182 13.9182 13.9182 13.9182 13.9182 13.9182 13.6143 13.6143 13.6143 13.6143 13.6143 13.6143 13.6143 13.6143 13.6143 13.6143 15.439 15.439 15.439 15.439 15.439 15.439 15.439 15.439 15.439 15.439 15.439 15.439 15.6053 15.6053 15.6053 15.6053 15.6053 15.6053 15.6053 15.6053 15.6053 19.0042 19.0042 19.0042 19.0042 19.0042 19.0042 19.0042 19.0042 19.0042 19.0042 19.0042 19.0042 19.0042 19.0042 19.0042 19.0042 19.0042 16.2939 16.2939 16.2939 16.2939 16.2939 16.2939 16.2939 16.2939 16.2939 16.2939 16.2939 13.4684 13.4684 13.4684 13.4684 13.4684 13.4684 13.4684 13.4684 13.4684 13.4684 13.4684 13.4684 11.5355 11.5355 11.5355 11.5355 11.5355 11.5355 11.5355 11.5355 11.5355 11.5355 11.5355 11.5355 11.5355 11.5355 11.5355 11.5355 11.5355 11.5355 11.5355 11.5355 11.5355 11.5355 11.5355 11.5355 11.4873 11.4873 11.4873 11.4873 11.4873 11.4873 11.4873 11.4873 11.4873 11.4873 11.4873 11.4873 11.4873 11.4873 13.9315 13.9315 13.9315 13.9315 13.9315 13.9315 13.9315 13.9315 13.9315 13.9315 13.9315 13.9315 13.6218 13.6218 13.6218 13.6218 13.6218 13.6218 13.6218 13.6218 13.6218 13.6218 13.6218 13.6218 14.978 14.978 14.978 14.978 14.978 14.978 14.978 14.978 14.978 14.978 14.978 16.847 16.847 16.847 16.847 16.847 16.847 16.847 16.847 16.847 16.847 16.847 16.847 16.847 16.847 15.5098 15.5098 15.5098 15.5098 15.5098 15.5098 15.5098 15.5098 15.5098 15.5098 15.5098 15.5098 13.3382 13.3382 13.3382 13.3382 13.3382 13.3382 13.3382 13.3382 13.3382 13.3382 13.3382 13.3382 13.3382 13.3382 13.3382 13.3382 13.3382 13.3382 13.3382 19.9598 19.9598 19.9598 19.9598 19.9598 19.9598 19.9598 19.9598 19.9598 19.9598 19.9598 19.9598 19.9598 13.2201 13.2201 13.2201 13.2201 13.2201 13.2201 13.2201 13.2201 13.2201 13.2201 13.2201 16.3612 16.3612 16.3612 16.3612 16.3612 16.3612 16.3612 16.3612 16.3612 16.3612 16.3612 16.3612 16.3612 14.8706 14.8706 14.8706 14.8706 14.8706 14.8706 14.8706 14.8706 14.8706 14.8706 14.8706 14.8706 14.8706 14.8706 19.0868 19.0868 19.0868 19.0868 19.0868 19.0868 19.0868 19.0868 19.0868 19.0868 19.0868 19.0868 19.0868 19.0868 19.0868 19.0868 19.0868 11.5118 11.5118 11.5118 11.5118 11.5118 11.5118 11.5118 11.5118 11.5118 11.5118 11.5118 11.5118 14.4697 14.4697 14.4697 14.4697 14.4697 14.4697 14.4697 14.4697 14.4697 14.4697 14.4697 14.4697 13.8566 13.8566 13.8566 13.8566 13.8566 13.8566 13.8566 13.8566 13.8566 13.8566 13.8566 13.8566 13.7897 13.7897 13.7897 13.7897 13.7897 13.7897 13.7897 13.7897 13.7897 13.7897 13.7897 13.7897 15.2351 15.2351 15.2351 15.2351 15.2351 15.2351 15.2351 15.2351 15.2351 15.2351 15.2351 15.2351 15.2351 11.5339 11.5339 11.5339 11.5339 11.5339 11.5339 11.5339 11.5339 11.5339 11.5339 11.5339 13.4861 13.4861 13.4861 13.4861 13.4861 13.4861 13.4861 13.4861 13.4861 13.4861 13.4861 13.4861 13.4861 13.4861 13.4861 13.4861 11.4989 11.4989 11.4989 11.4989 11.4989 11.4989 11.4989 11.4989 11.4989 11.4989 11.4989 11.4989 11.4989 13.9952 13.9952 13.9952 13.9952 13.9952 13.9952 13.9952 13.9952 13.9952 13.9952 13.9952 13.9952 13.9952 13.9952 13.3166 13.3166 13.3166 13.3166 13.3166 13.3166 13.3166 13.3166 13.3166 13.3166 13.3166 13.3166 13.151 13.151 13.151 13.151 13.151 13.151 13.151 13.151 13.151 13.151 13.151 13.151 13.151 13.151 13.151 13.151 13.151 17.7108 17.7108 17.7108 17.7108 17.7108 17.7108 17.7108 17.7108 17.7108 17.7108 17.7108 17.7108 11.5357 11.5357 11.5357 11.5357 11.5357 11.5357 11.5357 11.5357 11.5357 11.5357 11.5357 11.5357 11.5357 11.5357 13.6136 13.6136 13.6136 13.6136 13.6136 13.6136 13.6136 13.6136 13.6136 13.6136 13.6136 13.6136 13.0823 13.0823 13.0823 13.0823 13.0823 13.0823 13.0823 13.0823 13.0823 13.0823 13.0823 13.0823 13.0823 12.3012 12.3012 12.3012 12.3012 12.3012 12.3012 12.3012 12.3012 12.3012 12.3012 12.3012 12.3012 12.3012 12.3012 12.3012 12.3012 15.5915 15.5915 15.5915 15.5915 15.5915 15.5915 15.5915 15.5915 15.5915 15.5915 15.5915 15.5915 15.7214 15.7214 15.7214 15.7214 15.7214 15.7214 15.7214 15.7214 15.7214 15.7214 15.7214 15.7214 15.7214 15.7214 15.7214 15.7214 15.7214 15.7214 15.7214 15.7214 15.7214 17.1962 17.1962 17.1962 17.1962 17.1962 17.1962 17.1962 17.1962 17.1962 17.1962 17.1962 17.1962 17.1962 17.1962 17.1962 17.1962 17.1962 17.1962 15.8509 15.8509 15.8509 15.8509 15.8509 15.8509 15.8509 15.8509 15.8509 15.8509 15.8509 12.3586 12.3586 12.3586 12.3586 12.3586 12.3586 12.3586 12.3586 12.3586 12.3586 12.3586 12.3586 12.3586 12.3586 12.3586 12.3586 13.6014 13.6014 13.6014 13.6014 13.6014 13.6014 13.6014 13.6014 13.6014 13.6014 13.6014 13.6014 13.6014 18.5203 18.5203 18.5203 18.5203 18.5203 18.5203 18.5203 18.5203 18.5203 18.5203 18.5203 15.7629 15.7629 15.7629 15.7629 15.7629 15.7629 15.7629 15.7629 15.7629 15.7629 15.7629 15.7629 15.7629 15.7629 15.7629 18.9981 18.9981 18.9981 18.9981 18.9981 18.9981 18.9981 18.9981 18.9981 18.9981 18.9981 18.9981 18.9981 18.9981 18.8664 18.8664 18.8664 18.8664 18.8664 18.8664 18.8664 18.8664 18.8664 12.3783 12.3783 12.3783 12.3783 12.3783 12.3783 12.3783 12.3783 12.3783 12.3783 12.3783 12.3783 12.3783 12.3783 12.3783 12.3783 12.3783 12.3783 12.3783 12.3783 13.6311 13.6311 13.6311 13.6311 13.6311 13.6311 13.6311 13.6311 13.6311 13.6311 15.4676 15.4676 15.4676 15.4676 15.4676 15.4676 15.4676 15.4676 15.4676 15.4676 15.4676 15.4676 15.4676 15.4676 15.4676 15.4676 15.4676 15.4676 14.5488 14.5488 14.5488 14.5488 14.5488 14.5488 14.5488 14.5488 14.5488 14.5488 15.5515 15.5515 15.5515 15.5515 15.5515 15.5