# vtk DataFile Version 3.0
vtk output
ASCII
DATASET UNSTRUCTURED_GRID
POINTS 37068 double
-2.69857 0.405693 0.261692
-2.73186 0.401746 0.289067
-2.74065 0.411511 0.302669
-2.74302 0.541384 0.381301
-2.67872 0.564558 0.33757
-2.66804 0.429429 0.248429
-2.72389 0.386898 0.259635
-2.73186 0.401746 0.289067
-2.69857 0.405693 0.261692
-2.66804 0.429429 0.248429
-2.6338 0.471947 0
-2.80657 0.34275 0
-2.72389 0.386898 0.259635
-2.69857 0.405693 0.261692
-2.74065 0.411511 0.302669
-2.82816 0.406191 0.145884
-2.86173 0.595593 0.207759
-2.78742 0.610482 0.347507
-2.74302 0.541384 0.381301
-2.67872 0.564558 0.33757
-2.65072 0.798631 0.150101
-2.62954 0.870052 0
-2.6338 0.471947 0
-2.66804 0.429429 0.248429
-2.65072 0.798631 0.150101
-2.78742 0.610482 0.347507
-2.86173 0.595593 0.207759
-2.88193 0.651599 0
-2.62954 0.870052 0
-2.78742 0.610482 0.347507
-2.65072 0.798631 0.150101
-2.67872 0.564558 0.33757
-2.74302 0.541384 0.381301
-2.82816 0.406191 0.145884
-2.82456 0.352967 0
-2.88193 0.651599 0
-2.86173 0.595593 0.207759
-2.80657 0.34275 0
-2.82456 0.352967 0
-2.82816 0.406191 0.145884
-2.74065 0.411511 0.302669
-2.73186 0.401746 0.289067
-2.72389 0.386898 0.259635
-2.88193 0.651599 0
-2.82456 0.352967 0
-2.80657 0.34275 0
-2.6338 0.471947 0
-2.62954 0.870052 0
-0.791055 1.18746 0.0256956
-0.86794 1.1254 0.120003
-0.918358 1.08869 0
-0.78134 1.1956 0
-0.611879 0.443552 0
-0.637291 0.473164 0.019317
-0.727461 0.653962 0.121254
-0.697965 0.800153 0.178461
-0.317489 0.607942 0
-0.729558 0.489157 0
-0.637291 0.473164 0.019317
-0.611879 0.443552 0
-0.637291 0.473164 0.019317
-0.729558 0.489157 0
-0.810156 0.526196 0
-0.773707 0.633525 0.09076
-0.727461 0.653962 0.121254
-0.78134 1.1956 0
-0.730789 1.15256 0
-0.791055 1.18746 0.0256956
-0.795648 0.947082 0.16795
-0.697965 0.800153 0.178461
-0.727461 0.653962 0.121254
-0.773707 0.633525 0.09076
-0.730789 1.15256 0
-0.317489 0.607942 0
-0.697965 0.800153 0.178461
-0.795648 0.947082 0.16795
-0.868298 1.12161 0.122463
-0.86794 1.1254 0.120003
-0.791055 1.18746 0.0256956
-0.932855 1.04135 0
-0.918358 1.08869 0
-0.86794 1.1254 0.120003
-0.868298 1.12161 0.122463
-0.810156 0.526196 0
-0.932855 1.04135 0
-0.868298 1.12161 0.122463
-0.795648 0.947082 0.16795
-0.773707 0.633525 0.09076
-0.317489 0.607942 0
-0.730789 1.15256 0
-0.78134 1.1956 0
-0.918358 1.08869 0
-0.932855 1.04135 0
-0.810156 0.526196 0
-0.729558 0.489157 0
-0.611879 0.443552 0
-2.89785 0.934582 0.323276
-2.91469 0.90579 0.34976
-2.91721 0.9148 0.305662
-2.78742 0.610482 0.347507
-2.86173 0.595593 0.207759
-2.90614 0.756646 0.272338
-2.9113 0.868549 0.36103
-2.62295 0.918059 0
-2.62927 0.918557 0.0842476
-2.80718 1.02031 0.207417
-2.79754 1.02262 0
-2.65072 0.798631 0.150101
-2.62927 0.918557 0.0842476
-2.62295 0.918059 0
-2.62954 0.870052 0
-2.62954 0.870052 0
-2.88193 0.651599 0
-2.86173 0.595593 0.207759
-2.78742 0.610482 0.347507
-2.65072 0.798631 0.150101
-2.9113 0.868549 0.36103
-2.91469 0.90579 0.34976
-2.89785 0.934582 0.323276
-2.80718 1.02031 0.207417
-2.62927 0.918557 0.0842476
-2.65072 0.798631 0.150101
-2.78742 0.610482 0.347507
-2.91778 0.780331 0.0343481
-2.92179 0.905776 0.176896
-2.91721 0.9148 0.305662
-2.91469 0.90579 0.34976
-2.9113 0.868549 0.36103
-2.90614 0.756646 0.272338
-2.88193 0.651599 0
-2.91618 0.772226 0
-2.91778 0.780331 0.0343481
-2.90614 0.756646 0.272338
-2.86173 0.595593 0.207759
-2.91233 0.908978 0
-2.79754 1.02262 0
-2.80718 1.02031 0.207417
-2.89785 0.934582 0.323276
-2.91721 0.9148 0.305662
-2.92179 0.905776 0.176896
-2.91778 0.780331 0.0343481
-2.91618 0.772226 0
-2.91233 0.908978 0
-2.92179 0.905776 0.176896
-2.79754 1.02262 0
-2.91233 0.908978 0
-2.91618 0.772226 0
-2.88193 0.651599 0
-2.62954 0.870052 0
-2.62295 0.918059 0
-2.29688 -1.50689 0.387927
-2.29381 -1.53262 0.45
-2.25837 -1.39404 0.45
-2.67914 -1.73068 0.2473
-2.69073 -1.74155 0.252076
-2.69003 -1.75 0.271948
-2.58303 -1.75 0.45
-2.29381 -1.53262 0.45
-2.29688 -1.50689 0.387927
-2.53484 -1.61814 0.238255
-2.61632 -1.58446 0.215643
-2.63973 -1.54461 0.221188
-2.68937 -1.56683 0.24002
-2.77225 -1.63554 0.27356
-2.69073 -1.74155 0.252076
-2.67914 -1.73068 0.2473
-2.53484 -1.61814 0.238255
-2.61632 -1.58446 0.215643
-2.67914 -1.73068 0.2473
-2.8436 -1.60195 0.45
-2.73781 -1.75 0.45
-2.69003 -1.75 0.271948
-2.69073 -1.74155 0.252076
-2.77225 -1.63554 0.27356
-2.68937 -1.56683 0.24002
-2.72668 -1.47528 0.45
-2.8436 -1.60195 0.45
-2.77225 -1.63554 0.27356
-2.41435 -1.28382 0.424967
-2.63973 -1.54461 0.221188
-2.61632 -1.58446 0.215643
-2.53484 -1.61814 0.238255
-2.29688 -1.50689 0.387927
-2.25837 -1.39404 0.45
-2.35167 -1.29058 0.45
-2.43002 -1.28028 0.45
-2.41435 -1.28382 0.424967
-2.35167 -1.29058 0.45
-2.63973 -1.54461 0.221188
-2.41435 -1.28382 0.424967
-2.43002 -1.28028 0.45
-2.72668 -1.47528 0.45
-2.68937 -1.56683 0.24002
-2.73781 -1.75 0.45
-2.58303 -1.75 0.45
-2.69003 -1.75 0.271948
-2.58303 -1.75 0.45
-2.73781 -1.75 0.45
-2.8436 -1.60195 0.45
-2.72668 -1.47528 0.45
-2.43002 -1.28028 0.45
-2.35167 -1.29058 0.45
-2.25837 -1.39404 0.45
-2.29381 -1.53262 0.45
-1.09064 -1.07768 0.167369
-1.07167 -1.07697 0.310218
-1.02901 -1.19189 0.260096
-1.04091 -1.19703 0.155563
-1.04091 -1.19703 0.155563
-1.01307 -1.20266 0
-1.07743 -1.04195 0
-1.09064 -1.07768 0.167369
-0.87403 -0.892384 0.0972096
-0.917716 -0.886478 0.0700473
-0.949618 -0.91013 0
-0.820181 -0.97245 0
-0.914281 -0.913781 0.303634
-0.840503 -0.915329 0.276841
-0.706805 -1.09866 0.173457
-0.75412 -1.15227 0.174057
-0.851818 -1.18677 0.198432
-1.02901 -1.19189 0.260096
-1.07167 -1.07697 0.310218
-0.87403 -0.892384 0.0972096
-0.840503 -0.915329 0.276841
-0.914281 -0.913781 0.303634
-0.917716 -0.886478 0.0700473
-0.820181 -0.97245 0
-0.714843 -1.10777 0
-0.706805 -1.09866 0.173457
-0.840503 -0.915329 0.276841
-0.87403 -0.892384 0.0972096
-1.07743 -1.04195 0
-0.949618 -0.91013 0
-0.917716 -0.886478 0.0700473
-0.914281 -0.913781 0.303634
-1.07167 -1.07697 0.310218
-1.09064 -1.07768 0.167369
-0.851818 -1.18677 0.198432
-0.869926 -1.19633 0
-1.01307 -1.20266 0
-1.04091 -1.19703 0.155563
-1.02901 -1.19189 0.260096
-0.757609 -1.15622 0
-0.75412 -1.15227 0.174057
-0.706805 -1.09866 0.173457
-0.714843 -1.10777 0
-0.75412 -1.15227 0.174057
-0.757609 -1.15622 0
-0.869926 -1.19633 0
-0.851818 -1.18677 0.198432
-0.869926 -1.19633 0
-0.757609 -1.15622 0
-0.714843 -1.10777 0
-0.820181 -0.97245 0
-0.949618 -0.91013 0
-1.07743 -1.04195 0
-1.01307 -1.20266 0
-3.66 -1.45862 0.36253
-3.5853 -1.54426 0.280728
-3.66 -1.55807 0.337115
-3.48349 -1.37022 0.143745
-3.66 -1.42054 0.35919
-3.66 -1.10362 0.28951
-3.52709 -1.28976 0.17654
-3.48349 -1.37022 0.143745
-3.38472 -1.53807 0.0403718
-3.5853 -1.54426 0.280728
-3.66 -1.45862 0.36253
-3.66 -1.42054 0.35919
-3.52709 -1.28976 0.17654
-3.51781 -1.29312 0.141791
-3.42294 -1.43323 0
-3.37194 -1.54638 0
-3.38472 -1.53807 0.0403718
-3.48349 -1.37022 0.143745
-3.66 -1.09115 0.254828
-3.51781 -1.29312 0.141791
-3.52709 -1.28976 0.17654
-3.66 -1.10362 0.28951
-3.51781 -1.29312 0.141791
-3.66 -1.09115 0.254828
-3.66 -1.11174 0
-3.42294 -1.43323 0
-3.37194 -1.54638 0
-3.66 -1.67513 0
-3.66 -1.55807 0.337115
-3.5853 -1.54426 0.280728
-3.38472 -1.53807 0.0403718
-3.66 -1.55807 0.337115
-3.66 -1.67513 0
-3.66 -1.11174 0
-3.66 -1.09115 0.254828
-3.66 -1.10362 0.28951
-3.66 -1.42054 0.35919
-3.66 -1.45862 0.36253
-3.66 -1.11174 0
-3.66 -1.67513 0
-3.37194 -1.54638 0
-3.42294 -1.43323 0
-3.19658 -1.58474 0.45
-3.20193 -1.57713 0.377622
-3.22143 -1.55774 0.45
-2.9482 -1.52023 0.233636
-2.99548 -1.55113 0.234833
-2.96076 -1.55073 0.247267
-2.83812 -1.2146 0.184087
-3.03003 -1.45262 0.211475
-3.02413 -1.55228 0.232041
-2.99548 -1.55113 0.234833
-2.9482 -1.52023 0.233636
-2.77636 -1.17473 0.182622
-3.03003 -1.45262 0.211475
-3.165 -1.56826 0.313384
-3.02413 -1.55228 0.232041
-3.165 -1.56826 0.313384
-3.20193 -1.57713 0.377622
-3.19658 -1.58474 0.45
-2.91349 -1.57043 0.45
-2.96076 -1.55073 0.247267
-2.99548 -1.55113 0.234833
-3.02413 -1.55228 0.232041
-2.81052 -1.03925 0.45
-2.76929 -1.17382 0.205661
-2.7625 -1.29057 0.45
-2.82109 -1.02544 0.45
-2.81784 -1.03926 0.421036
-2.77526 -1.17326 0.183702
-2.76929 -1.17382 0.205661
-2.81052 -1.03925 0.45
-2.83812 -1.2146 0.184087
-2.81784 -1.03926 0.421036
-2.82109 -1.02544 0.45
-3.22143 -1.55774 0.45
-3.20193 -1.57713 0.377622
-3.165 -1.56826 0.313384
-3.03003 -1.45262 0.211475
-2.91349 -1.57043 0.45
-2.7625 -1.29057 0.45
-2.76929 -1.17382 0.205661
-2.77526 -1.17326 0.183702
-2.77636 -1.17473 0.182622
-2.9482 -1.52023 0.233636
-2.96076 -1.55073 0.247267
-2.77636 -1.17473 0.182622
-2.77526 -1.17326 0.183702
-2.81784 -1.03926 0.421036
-2.83812 -1.2146 0.184087
-3.22143 -1.55774 0.45
-2.82109 -1.02544 0.45
-2.81052 -1.03925 0.45
-2.7625 -1.29057 0.45
-2.91349 -1.57043 0.45
-3.19658 -1.58474 0.45
-3.31374 -0.690243 0.0899096
-3.34796 -0.682563 0.128353
-3.33066 -0.668227 0.117492
-3.30307 -0.659137 0.0936926
-3.31374 -0.690243 0.0899096
-3.34168 -0.774476 0.0538733
-3.66 -0.895442 0.268091
-3.66 -0.868412 0.288227
-3.34796 -0.682563 0.128353
-3.30307 -0.659137 0.0936926
-3.26733 -0.56619 0
-3.34037 -0.776417 0
-3.34168 -0.774476 0.0538733
-3.31374 -0.690243 0.0899096
-3.53049 -0.389132 0.022725
-3.33066 -0.668227 0.117492
-3.34796 -0.682563 0.128353
-3.66 -0.868412 0.288227
-3.66 -0.353849 0.0334091
-3.53049 -0.389132 0.022725
-3.47378 -0.404265 0
-3.26733 -0.56619 0
-3.30307 -0.659137 0.0936926
-3.33066 -0.668227 0.117492
-3.66 -0.353849 0.0334091
-3.66 -0.353264 0
-3.47378 -0.404265 0
-3.53049 -0.389132 0.022725
-3.34037 -0.776417 0
-3.66 -0.907779 0
-3.66 -0.895442 0.268091
-3.34168 -0.774476 0.0538733
-3.66 -0.895442 0.268091
-3.66 -0.907779 0
-3.66 -0.353264 0
-3.66 -0.353849 0.0334091
-3.66 -0.868412 0.288227
-3.66 -0.353264 0
-3.66 -0.907779 0
-3.34037 -0.776417 0
-3.26733 -0.56619 0
-3.47378 -0.404265 0
-0.45741 -0.792914 0.0660358
-0.434356 -0.851543 0
-0.419189 -0.865705 0
-0.379683 -0.830663 0.128016
-0.412255 -0.792384 0.142016
-0.419189 -0.865705 0
-0.651944 -1.06625 0
-0.633077 -1.04788 0.269986
[...]
CELL_DATA 7458
FIELD FieldData 6
weight 1 7458 float
 6.75515 6.75515 6.75515 6.75515 6.75515 6.75515 6.75515 6.75515 6.75515 6.75515 6.83565 6.83565 6.83565 6.83565 6.83565 6.83565 6.83565 6.83565 6.83565 6.83565 6.75137 6.75137 6.75137 6.75137 6.75137 6.75137 6.75137 6.75137 6.75137 6.75137 6.75137 6.00507 6.00507 6.00507 6.00507 6.00507 6.00507 6.00507 6.00507 6.00507 6.00507 6.00507 6.09916 6.09916 6.09916 6.09916 6.09916 6.09916 6.09916 6.09916 6.09916 6.09916 6.09916 6.5162 6.5162 6.5162 6.5162 6.5162 6.5162 6.5162 6.5162 6.5162 5.99123 5.99123 5.99123 5.99123 5.99123 5.99123 5.99123 5.99123 5.99123 5.99123 5.99123 6.58044 6.58044 6.58044 6.58044 6.58044 6.58044 6.58044 6.58044 6.58044 6.09423 6.09423 6.09423 6.09423 6.09423 6.09423 6.09423 6.09423 6.09423 6.09423 6.01209 6.01209 6.01209 6.01209 6.01209 6.01209 6.01209 6.01209 6.49598 6.49598 6.49598 6.49598 6.49598 6.49598 6.49598 6.78432 6.78432 6.78432 6.78432 6.78432 6.78432 6.78432 6.78432 6.78432 6.85294 6.85294 6.85294 6.85294 6.85294 6.85294 6.85294 6.85294 6.85294 6.85294 6.85294 6.85294 6.85294 6.92783 6.92783 6.92783 6.92783 6.92783 6.92783 6.92783 6.92783 6.92783 6.92783 6.13143 6.13143 6.13143 6.13143 6.13143 6.13143 6.13143 6.13143 6.13143 6.13143 6.74711 6.74711 6.74711 6.74711 6.74711 6.74711 6.74711 6.74711 6.74711 6.74711 6.74711 6.74711 6.74711 6.86715 6.86715 6.86715 6.86715 6.86715 6.86715 6.86715 6.86715 6.86715 6.86715 6.89604 6.89604 6.89604 6.89604 6.89604 6.89604 6.89604 6.89604 6.89604 6.89604 6.89604 6.89604 6.22958 6.22958 6.22958 6.22958 6.22958 6.22958 6.22958 6.22958 6.22958 6.22958 6.22958 6.22958 6.22958 6.22958 6.22958 6.04034 6.04034 6.04034 6.04034 6.04034 6.04034 6.04034 6.04034 6.04034 6.04034 6.04034 6.04034 6.04034 6.04034 6.04034 6.04034 6.31331 6.31331 6.31331 6.31331 6.31331 6.31331 6.31331 6.31331 6.31331 6.31331 6.31331 6.31331 6.31331 6.31331 6.31331 6.31331 6.42947 6.42947 6.42947 6.42947 6.42947 6.42947 6.42947 6.42947 6.42947 6.42947 6.42947 6.073 6.073 6.073 6.073 6.073 6.073 6.073 6.073 6.073 6.073 6.073 6.073 6.073 5.99939 5.99939 5.99939 5.99939 5.99939 5.99939 5.99939 5.99939 5.99939 5.99939 5.99939 5.99939 5.99939 6.0208 6.0208 6.0208 6.0208 6.0208 6.0208 6.0208 6.0208 6.0208 6.0208 6.12316 6.12316 6.12316 6.12316 6.12316 6.12316 6.12316 6.12316 6.12316 6.12316 6.12316 6.12316 6.12316 6.12316 6.22744 6.22744 6.22744 6.22744 6.22744 6.22744 6.22744 6.22744 6.22744 6.22744 6.22744 6.22744 6.22744 6.22744 6.56665 6.56665 6.56665 6.56665 6.56665 6.56665 6.56665 6.56665 6.56665 6.56665 6.56665 5.95371 5.95371 5.95371 5.95371 5.95371 5.95371 5.95371 5.95371 5.95371 5.95371 6.29597 6.29597 6.29597 6.29597 6.29597 6.29597 6.29597 6.29597 6.29597 6.29597 6.29597 6.29597 6.29597 6.29597 6.29597 6.29597 6.93553 6.93553 6.93553 6.93553 6.93553 6.93553 6.93553 6.93553 6.31761 6.31761 6.31761 6.31761 6.31761 6.31761 6.31761 6.31761 6.31761 6.31761 6.31761 6.31761 6.31761 5.99693 5.99693 5.99693 5.99693 5.99693 5.99693 5.99693 5.99693 5.99693 5.99693 5.99693 5.99693 5.99693 6.79212 6.79212 6.79212 6.79212 6.79212 6.79212 6.79212 6.79212 6.79212 6.79212 6.79212 6.79212 6.97819 6.97819 6.97819 6.97819 6.97819 6.97819 6.97819 6.97819 6.97819 6.97819 6.97819 6.66474 6.66474 6.66474 6.66474 6.66474 6.66474 6.66474 6.66474 6.66474 6.66474 6.08841 6.08841 6.08841 6.08841 6.08841 6.08841 6.08841 6.08841 6.08841 6.08841 6.08841 6.08841 6.26235 6.26235 6.26235 6.26235 6.26235 6.26235 6.26235 6.26235 6.26235 6.26235 6.26235 6.26235 6.26235 6.4135 6.4135 6.4135 6.4135 6.4135 6.4135 6.4135 6.4135 6.4135 5.98857 5.98857 5.98857 5.98857 5.98857 5.98857 5.98857 5.98857 5.98857 5.98857 5.98857 6.46191 6.46191 6.46191 6.46191 6.46191 6.46191 6.46191 6.46191 6.46191 6.46191 6.46191 6.46191 6.46191 6.08593 6.08593 6.08593 6.08593 6.08593 6.08593 6.08593 6.08593 6.08593 6.08593 6.08593 6.08593 6.0951 6.0951 6.0951 6.0951 6.0951 6.0951 6.0951 6.0951 6.0951 6.0951 6.0951 6.35792 6.35792 6.35792 6.35792 6.35792 6.35792 6.35792 6.35792 6.35792 6.35792 6.35792 6.35792 6.97232 6.97232 6.97232 6.97232 6.97232 6.97232 6.97232 6.97232 6.97232 5.98242 5.98242 5.98242 5.98242 5.98242 5.98242 5.98242 5.98242 5.98242 5.98242 5.98242 5.98242 6.39153 6.39153 6.39153 6.39153 6.39153 6.39153 6.39153 6.39153 6.39153 6.39153 6.39153 6.39153 6.39153 6.39153 6.98407 6.98407 6.98407 6.98407 6.98407 6.98407 6.98407 6.98407 6.98407 6.57514 6.57514 6.57514 6.57514 6.57514 6.57514 6.57514 6.57514 6.57514 6.57514 6.46869 6.46869 6.46869 6.46869 6.46869 6.46869 6.46869 6.46869 6.46869 6.46869 6.46869 6.98031 6.98031 6.98031 6.98031 6.98031 6.98031 6.98031 6.98031 6.98031 6.98031 6.98031 5.73953 5.73953 5.73953 5.73953 5.73953 5.73953 5.73953 5.73953 5.73953 5.73953 5.73953 5.73953 6.10746 6.10746 6.10746 6.10746 6.10746 6.10746 6.10746 6.10746 6.10746 6.10746 6.10746 6.10746 6.10746 6.99258 6.99258 6.99258 6.99258 6.99258 6.99258 6.99258 6.99258 6.99258 6.99258 6.45468 6.45468 6.45468 6.45468 6.45468 6.45468 6.45468 6.45468 6.45468 6.45468 6.45468 6.45468 6.71972 6.71972 6.71972 6.71972 6.71972 6.71972 6.71972 6.71972 6.71972 6.71972 6.71972 6.42872 6.42872 6.42872 6.42872 6.42872 6.42872 6.42872 6.42872 6.51581 6.51581 6.51581 6.51581 6.51581 6.51581 6.51581 6.51581 6.51581 6.51581 5.95829 5.95829 5.95829 5.95829 5.95829 5.95829 5.95829 5.95829 5.95829 5.95829 5.95829 6.13673 6.13673 6.13673 6.13673 6.13673 6.13673 6.13673 6.13673 6.13673 6.13673 6.13673 6.13673 5.74934 5.74934 5.74934 5.74934 5.74934 5.74934 5.74934 5.74934 5.74934 5.74934 5.74934 5.74934 5.74934 5.74934 5.74934 5.74934 6.4819 6.4819 6.4819 6.4819 6.4819 6.4819 6.4819 6.4819 6.4819 5.98998 5.98998 5.98998 5.98998 5.98998 5.98998 5.98998 5.98998 5.98998 5.98998 5.98998 5.98998 5.98998 5.98998 6.29011 6.29011 6.29011 6.29011 6.29011 6.29011 6.29011 6.29011 6.29011 6.29011 6.29011 6.69772 6.69772 6.69772 6.69772 6.69772 6.69772 6.69772 6.69772 6.69772 6.69772 6.69772 6.69772 6.01439 6.01439 6.01439 6.01439 6.01439 6.01439 6.01439 6.01439 6.01439 6.01439 6.9968 6.9968 6.9968 6.9968 6.9968 6.9968 6.9968 6.9968 6.9968 6.9968 6.9968 5.66368 5.66368 5.66368 5.66368 5.66368 5.66368 5.66368 5.66368 5.66368 5.66368 5.66368 5.66368 5.66368 5.66368 6.82985 6.82985 6.82985 6.82985 6.82985 6.82985 6.82985 6.82985 6.82985 6.82985 6.82985 6.82985 6.82985 6.82985 6.82985 6.82985 6.82985 6.82985 6.82985 6.0684 6.0684 6.0684 6.0684 6.0684 6.0684 6.0684 6.0684 7.13969 7.13969 7.13969 7.13969 7.13969 7.13969 7.13969 7.13969 7.13969 7.13969 6.04965 6.04965 6.04965 6.04965 6.04965 6.04965 6.04965 6.04965 6.04965 6.04965 6.04965 6.04965 6.04965 6.04965 6.04965 6.04965 6.11761 6.11761 6.11761 6.11761 6.11761 6.11761 6.11761 6.11761 6.11761 6.11761 6.11761 6.11761 6.49164 6.49164 6.49164 6.49164 6.49164 6.49164 6.49164 6.49164 6.49164 6.49164 6.49164 6.49164 6.49164 6.49164 6.49164 6.49164 6.08123 6.08123 6.08123 6.08123 6.08123 6.08123 6.08123 6.08123 6.08123 6.74147 6.74147 6.74147 6.74147 6.74147 6.74147 6.74147 6.74147 6.74147 6.74147 6.74147 6.74147 6.57988 6.57988 6.57988 6.57988 6.57988 6.57988 6.57988 6.45557 6.45557 6.45557 6.45557 6.45557 6.45557 6.45557 6.45557 6.45557 6.45557 6.68299 6.68299 6.68299 6.68299 6.68299 6.68299 6.68299 6.68299 6.68299 6.68299 6.68299 6.68299 7.02922 7.02922 7.02922 7.02922 7.02922 7.02922 7.02922 7.02922 7.02922 7.02922 7.02922 5.75426 5.75426 5.75426 5.75426 5.75426 5.75426 5.75426 5.75426 5.75426 5.75426 5.75426 5.75426 5.75426 5.75426 5.75426 5.75426 5.75426 5.75426 6.76168 6.76168 6.76168 6.76168 6.76168 6.76168 6.76168 6.76168 6.76168 6.76168 6.76168 6.76168 6.14166 6.14166 6.14166 6.14166 6.14166 6.14166 6.14166 6.14166 6.14166 6.07456 6.07456 6.07456 6.07456 6.07456 6.07456 6.07456 6.07456 6.07456 6.07456 6.07456 5.74588 5.74588 5.74588 5.74588 5.74588 5.74588 5.74588 5.74588 5.74588 5.74588 5.74588 5.74588 5.74588 5.74588 6.45141 6.45141 6.45141 6.45141 6.45141 6.45141 6.45141 6.45141 6.45141 6.68856 6.68856 6.68856 6.68856 6.68856 6.68856 6.68856 6.68856 6.68856 6.68856 6.68856 6.11594 6.11594 6.11594 6.11594 6.11594 6.11594 6.11594 6.11594 6.11594 6.11594 6.11594 6.11594 6.11594 6.88732 6.88732 6.88732 6.88732 6.88732 6.88732 6.88732 6.88732 6.88732 6.1101 6.1101 6.1101 6.1101 6.1101 6.1101 6.1101 6.1101 6.1101 6.1101 6.1101 6.1101 6.1101 6.1101 7.02026 7.02026 7.02026 7.02026 7.02026 7.02026 7.02026 7.02026 6.28545 6.28545 6.28545 6.28545 6.28545 6.28545 6.28545 6.28545 6.28545 6.39166 6.39166 6.39166 6.39166 6.39166 6.39166 6.39166 6.39166 6.56943 6.56943 6.56943 6.56943 6.56943 6.56943 6.56943 6.56943 6.56943 6.56943 6.56943 6.05408 6.05408 6.05408 6.05408 6.05408 6.05408 6.05408 6.05408 6.05408 6.05408 6.05408 6.05408 6.05408 6.05408 6.05408 6.45874 6.45874 6.45874 6.45874 6.45874 6.45874 6.45874 6.45874 6.45874 6.45874 6.45874 6.45874 6.51422 6.51422 6.51422 6.51422 6.51422 6.51422 6.51422 6.51422 6.51422 6.51422 6.51422 5.72044 5.72044 5.72044 5.72044 5.72044 5.72044 5.72044 5.72044 5.72044 5.72044 5.72044 6.11741 6.11741 6.11741 6.11741 6.11741 6.11741 6.11741 6.11741 6.426 6.426 6.426 6.426 6.426 6.426 6.426 6.426 6.426 6.426 6.93182 6.93182 6.93182 6.93182 6.93182 6.93182 6.93182 6.93182 5.95069 5.95069 5.95069 5.95069 5.95069 5.95069 5.95069 5.95069 5.95069 5.95069 5.95069 5.95069 5.95069 6.91997 6.91997 6.91997 6.91997 6.91997 6.91997 6.91997 6.91997 6.91997 6.91997 6.91997 6.91997 6.15832 6.15832 6.15832 6.15832 6.15832 6.15832 6.15832 6.15832 6.15832 6.15832 6.26159 6.26159 6.26159 6.26159 6.26159 6.26159 6.26159 6.26159 6.26159 6.26159 6.26159 6.26159 6.26159 5.92654 5.92654 5.92654 5.92654 5.92654 5.92654 5.92654 5.92654 5.92654 5.92654 5.92654 6.85376 6.85376 6.85376 6.85376 6.85376 6.85376 6.85376 6.85376 6.85376 6.85376 6.85376 6.85376 6.85376 6.66877 6.66877 6.66877 6.66877 6.66877 6.66877 6.66877 6.66877 6.66877 6.66877 6.66877 6.66877 6.66877 6.66877 6.66877 6.66877 6.66877 6.66877 5.82727 5.82727 5.82727 5.82727 5.82727 5.82727 5.82727 5.82727 5.82727 5.82727 5.82727 5.82727 6.94352 6.94352 6.94352 6.94352 6.94352 6.94352 6.94352 6.94352 6.94352 6.94352 6.39057 6.39057 6.39057 6.39057 6.39057 6.39057 6.39057 6.39057 6.39057 5.95243 5.95243 5.95243 5.95243 5.95243 5.95243 5.95243 5.95243 5.95243 6.89415 6.89415 6.89415 6.89415 6.89415 6.89415 6.89415 6.89415 6.89415 6.92414 6.92414 6.92414 6.92414 6.92414 6.92414 6.92414 6.92414 6.92414 6.92414 6.92414 6.30993 6.30993 6.30993 6.30993 6.30993 6.30993 6.30993 6.30993 6.30993 6.30993 6.30993 6.30993 6.30993 6.27206 6.27206 6.27206 6.27206 6.27206 6.27206 6.27206 6.27206 6.27206 6.27206 7.06166 7.06166 7.06166 7.06166 7.06166 7.06166 7.06166 7.06166 7.06166 6.91207 6.91207 6.91207 6.91207 6.91207 6.91207 6.91207 6.91207 6.91207 6.91207 6.14236 6.14236 6.14236 6.14236 6.14236 6.14236 6.14236 6.14236 6.14236 5.96468 5.96468 5.96468 5.96468 5.96468 5.96468 5.96468 5.96468 5.96468 5.96468 5.96468 5.96468 5.96468 5.96468 6.32451 6.32451 6.32451 6.32451 6.32451 6.32451 6.32451 6.32451 6.32451 6.32451 6.32451 6.2513 6.2513 6.2513 6.2513 6.2513 6.2513 6.2513 6.2513 6.2513 6.03516 6.03516 6.03516 6.03516 6.03516 6.03516 6.03516 6.03516 6.03516 6.03516 6.03516 6.03516 6.03516 6.03516 6.03516 6.03516 6.03516 5.9255 5.9255 5.9255 5.9255 5.9255 5.9255 5.9255 5.9255 5.9255 5.9255 5.9255 5.9255 5.9255 5.9255 5.9255 6.44593 6.44593 6.44593 6.44593 6.44593 6.44593 6.44593 6.44593 6.44593 6.44593 6.44593 6.52385 6.52385 6.52385 6.52385 6.52385 6.52385 6.52385 6.52385 6.52385 6.17063 6.17063 6.17063 6.17063 6.17063 6.17063 6.17063 6.17063 6.17063 6.17063 6.17063 6.30509 6.30509 6.30509 6.30509 6.30509 6.30509 6.30509 6.30509 6.30509 6.30509 6.30509 6.68055 6.68055 6.68055 6.68055 6.68055 6.68055 6.68055 6.68055 6.68055 6.68055 6.68055 6.68055 5.80107 5.80107 5.80107 5.80107 5.80107 5.80107 5.80107 5.80107 5.80107 5.80107 5.80107 5.80107 5.80107 5.80107 5.80107 6.44053 6.44053 6.44053 6.44053 6.44053 6.44053 6.44053 6.44053 6.44053 6.44053 6.0316 6.0316 6.0316 6.0316 6.0316 6.0316 6.0316 6.0316 6.0316 6.25632 6.25632 6.25632 6.25632 6.25632 6.25632 6.25632 6.25632 6.25632 6.25632 6.25632 5.64729 5.64729 5.64729 5.64729 5.64729 5.64729 5.96934 5.96934 5.96934 5.96934 5.96934 5.96934 5.96934 5.96934 5.96934 5.96934 5.96934 5.96934 5.96934 6.72412 6.72412 6.72412 6.72412 6.72412 6.72412 6.72412 6.72412 6.72412 6.72412 6.72412 6.72412 6.72412 6.05022 6.05022 6.05022 6.05022 6.05022 6.05022 6.05022 6.05022 6.05022 6.05022 6.05022 6.3367 6.3367 6.3367 6.3367 6.3367 6.3367 6.3367 6.3367 6.3367 6.3367 6.3367 6.3367 6.17169 6.17169 6.17169 6.17169 6.17169 6.17169 6.17169 6.17169 6.17169 6.17169 6.17169 6.1602 6.1602 6.1602 6.1602 6.1602 6.1602 6.1602 6.1602 6.1602 6.1602 6.1602 6.1602 6.1602 6.1602 6.02181 6.02181 6.02181 6.02181 6.02181 6.02181 6.02181 6.02181 6.02181 6.02181 6.02181 6.02181 6.02181 6.02181 6.02181 6.7187 6.7187 6.7187 6.7187 6.7187 6.7187 6.7187 6.7187 6.7187 6.7187 6.7187 6.7187 6.44647 6.44647 6.44647 6.44647 6.44647 6.44647 6.44647 6.44647 6.44647 6.44647 6.44647 6.05247 6.05247 6.05247 6.05247 6.05247 6.05247 6.05247 6.05247 6.05247 6.05247 5.98665 5.98665 5.98665 5.98665 5.98665 5.98665 5.98665 5.98665 5.98665 5.98665 5.98665 5.98665 5.98665 5.98665 5.98665 5.65225 5.65225 5.65225 5.65225 5.65225 5.65225 5.65225 5.65225 5.65225 5.65225 5.65225 5.65225 6.74654 6.74654 6.74654 6.74654 6.74654 6.74654 6.74654 6.74654 6.74654 6.74654 6.74654 6.74654 6.05234 6.05234 6.05234 6.05234 6.05234 6.05234 6.05234 6.05234 6.05234 6.05234 6.05234 6.05234 6.05234 6.05234 6.05234 6.05234 6.05234 6.34447 6.34447 6.34447 6.34447 6.34447 6.34447 6.34447 6.34447 6.34447 6.64832 6.64832 6.64832 6.64832 6.64832 6.64832 6.64832 6.64832 6.64832 6.64832 6.64832 6.50299 6.50299 6.50299 6.50299 6.50299 6.50299 6.50299 6.50299 6.50299 6.50299 6.50299 6.50299 6.50299 6.35215 6.35215 6.35215 6.35215 6.35215 6.35215 6.35215 6.35215 6.35215 6.35215 6.35215 6.35215 5.98849 5.98849 5.98849 5.98849 5.98849 5.98849 5.98849 5.98849 5.98849 5.98849 5.98849 5.98849 5.98849 5.98849 5.98849 6.51892 6.51892 6.51892 6.51892 6.51892 6.51892 6.51892 6.51892 6.51892 6.51892 6.51892 6.51892 6.59891 6.59891 6.59891 6.59891 6.59891 6.59891 6.59891 6.59891 6.59891 6.59891 6.59891 6.42848 6.42848 6.42848 6.42848 6.42848 6.42848 6.42848 6.42848 6.42848 6.42848 6.42848 6.42848 6.42848 6.42848 6.42848 6.42848 6.42848 6.42848 6.42848 5.64474 5.64474 5.64474 5.64474 5.64474 5.64474 5.64474 5.64474 5.64474 5.64474 5.64474 5.64474 5.64474 5.64474 5.64474 6.53568 6.53568 6.53568 6.53568 6.53568 6.53568 6.53568 6.53568 6.53568 6.53568 6.53568 6.04796 6.04796 6.04796 6.04796 6.04796 6.04796 6.04796 6.04796 6.04796 6.04796 6.04796 6.62386 6.62386 6.62386 6.62386 6.62386 6.62386 6.62386 6.62386 6.62386 6.62386 6.62386 6.62386 6.62386 6.62386 6.03641 6.03641 6.03641 6.03641 6.03641 6.03641 6.03641 6.03641 6.03641 6.03641 6.03641 6.03641 6.03641 6.03641 6.03641 6.05232 6.05232 6.05232 6.05232 6.05232 6.05232 6.05232 6.05232 6.05232 6.05232 6.34311 6.34311 6.34311 6.34311 6.34311 6.34311 6.34311 6.34311 6.34311 6.34311 6.34311 6.18517 6.18517 6.18517 6.18517 6.18517 6.18517 6.18517 6.18517 6.18517 6.49989 6.49989 6.49989 6.49989 6.49989 6.49989 6.49989 6.49989 6.49989 6.49989 6.49989 6.49989 6.49989 6.49989 6.49989 6.62003 6.62003 6.62003 6.62003 6.62003 6.62003 6.62003 6.62003 6.62003 6.62003 6.62003 6.04701 6.04701 6.04701 6.04701 6.04701 6.04701 6.04701 6.04701 6.04701 6.04701 6.04701 6.04701 6.04701 6.06989 6.06989 6.06989 6.06989 6.06989 6.06989 6.06989 6.06989 6.06989 6.06989 6.06989 6.06989 6.06989 6.06989 6.46965 6.46965 6.46965 6.46965 6.46965 6.46965 6.46965 6.46965 6.53862 6.53862 6.53862 6.53862 6.53862 6.53862 6.53862 6.53862 6.04045 6.04045 6.04045 6.04045 6.04045 6.04045 6.04045 6.04045 6.04045 6.04045 6.04045 6.04045 6.39864 6.39864 6.39864 6.39864 6.39864 6.39864 6.39864 6.39864 6.39864 6.39864 6.39864 6.39864 6.39864 6.39864 6.39864 6.33088 6.33088 6.33088 6.33088 6.33088 6.33088 6.33088 6.33088 6.33088 6.33088 6.33088 6.33088 6.33088 6.31213 6.31213 6.31213 6.31213 6.31213 6.31213 6.31213 6.31213 6.31213 6.31213 6.31213 6.31213 6.29696 6.29696 6.29696 6.29696 6.29696 6.29696 6.29696 6.29696 6.29696 6.27136 6.27136 6.27136 6.27136 6.27136 6.27136 6.27136 6.27136 6.27136 6.27136 6.27136 6.27136 6.32693 6.32693 6.32693 6.32693 6.32693 6.32693 6.32693 6.32693 6.32693 6.32693 6.32693 6.32693 6.32693 6.32693 6.32693 5.64254 5.64254 5.64254 5.64254 5.64254 5.64254 5.64254 5.64254 5.64254 5.64254 5.64254 5.64254 5.64254 5.64254 5.64254 6.69944 6.69944 6.69944 6.69944 6.69944 6.69944 6.69944 6.69944 6.69944 6.69944 6.69944 6.37267 6.37267 6.37267 6.37267 6.37267 6.37267 6.37267 6.37267 6.37267 6.37267 6.37267 6.37267 6.37267 6.37267 6.37267 6.37267 6.37267 6.37267 6.37267 6.37267 5.7073 5.7073 5.7073 5.7073 5.7073 5.7073 5.7073 5.7073 5.7073 5.7073 5.7073 5.7073 5.7073 5.7073 5.7073 6.28955 6.28955 6.28955 6.28955 6.28955 6.28955 6.28955 6.28955 6.28955 6.28955 6.28955 6.28955 6.28955 6.42863 6.42863 6.42863 6.42863 6.42863 6.42863 6.42863 6.42863 6.5414 6.5414 6.5414 6.5414 6.5414 6.5414 6.5414 6.5414 6.5414 6.5414 6.5414 6.5414 6.5414 6.5414 6.5414 6.5414 6.5414 6.24237 6.24237 6.24237 6.24237 6.24237 6.24237 6.24237 6.25725 6.25725 6.25725 6.25725 6.25725 6.25725 6.25725 6.25725 6.25725 6.25725 6.25725 6.25725 6.25725 6.29493 6.29493 6.29493 6.29493 6.29493 6.29493 6.29493 6.29493 6.29493 6.29493 6.29493 6.29493 6.29493 6.29493 5.75777 5.75777 5.75777 5.75777 5.75777 5.75777 5.75777 5.75777 5.75777 5.75777 5.75777 5.75777 5.75777 5.75777 5.75777 5.75777 6.40309 6.40309 6.40309 6.40309 6.40309 6.40309 6.40309 6.40309 5.63615 5.63615 5.63615 5.63615 5.63615 5.63615 5.63615 5.63615 5.63615 5.63615 5.63615 5.63615 5.63615 5.63615 5.63615 5.63615 5.84355 5.84355 5.84355 5.84355 5.84355 5.84355 5.84355 5.84355 5.84355 5.84355 5.84355 5.84355 5.84355 5.74854 5.74854 5.74854 5.74854 5.74854 5.74854 5.74854 5.74854 5.74854 5.74854 5.74854 5.74854 5.74854 5.74854 5.74854 6.79696 6.79696 6.79696 6.79696 6.79696 6.79696 6.79696 6.79696 6.69886 6.69886 6.69886 6.69886 6.69886 6.69886 6.69886 6.69886 6.69886 6.8797 6.8797 6.8797 6.8797 6.8797 6.8797 6.8797 6.8797 6.8797 6.28708 6.28708 6.28708 6.28708 6.28708 6.28708 6.28708 6.28708 6.28708 5.96316 5.96316 5.96316 5.96316 5.96316 5.96316 5.96316 5.96316 5.96316 5.96316 5.96316 5.96316 5.96316 5.96316 5.96316 5.96316 5.96316 5.96316 6.23222 6.23222 6.23222 6.23222 6.23222 6.23222 6.23222 6.23222 6.23222 6.23222 6.23222 6.31605 6.31605 6.31605 6.31605 6.31605 6.31605 6.31605 6.31605 6.31605 6.31605 6.30976 6.30976 6.30976 6.30976 6.30976 6.30976 6.30976 6.30976 6.30976 6.30976 6.30976 6.30976 6.30976 6.30976 6.30976 6.30976 6.85164 6.85164 6.85164 6.85164 6.85164 6.85164 6.85164 6.85164 6.85164 6.85164 6.85164 6.35695 6.35695 6.35695 6.35695 6.35695 6.35695 6.35695 6.35695 6.35695 6.88332 6.88332 6.88332 6.88332 6.88332 6.88332 6.88332 6.58292 6.58292 6.58292 6.58292 6.58292 6.58292 6.58292 6.58292 6.32208 6.32208 6.32208 6.32208 6.32208 6.32208 6.32208 6.32208 6.32208 6.32208 5.84977 5.84977 5.84977 5.84977 5.84977 5.84977 5.84977 5.84977 5.84977 5.84977 5.84977 5.84977 5.84977 6.93137 6.93137 6.93137 6.93137 6.93137 6.93137 6.93137 6.93137 6.93137 5.75997 5.75997 5.75997 5.75997 5.75997 5.75997 5.75997 5.75997 5.75997 5.75997 5.75997 5.75997 5.75997 6.1114 6.1114 6.1114 6.1114 6.1114 6.1114 6.1114 6.1114 6.1114 6.1114 6.27072 6.27072 6.27072 6.27072 6.27072 6.27072 6.27072 6.29405 6.29405 6.29405 6.29405 6.29405 6.29405 6.29405 6.29405 6.29405 6.29405 6.29405 6.29405 6.29405 6.29405 6.26428 6.26428 6.26428 6.26428 6.26428 6.26428 6.26428 6.08184 6.08184 6.08184 6.08184 6.08184 6.08184 6.08184 6.08184 6.08184 6.08184 6.08184 6.08184 6.08184 6.08184 6.08184 6.15196 6.15196 6.15196 6.15196 6.15196 6.15196 6.15196 6.15196 6.15196 6.15196 6.15196 5.9684 5.9684 5.9684 5.9684 5.9684 5.9684 5.9684 5.9684 5.9684 5.9684 6.68506 6.68506 6.68506 6.68506 6.68506 6.68506 6.68506 6.68506 6.68506 6.68506 6.68506 6.68506 6.68506 6.05562 6.05562 6.05562 6.05562 6.05562 6.05562 6.05562 6.05562 6.05562 6.05562 6.05562 6.05562 6.05562 6.05562 6.055