# vtk DataFile Version 3.0
vtk output
ASCII
DATASET UNSTRUCTURED_GRID
POINTS 19314 double
-2.60161 -0.924002 0.215122
-2.67869 -1.06721 0.226831
-2.72794 -1.07933 0.278614
-2.61453 -0.864059 0.263926
-2.57043 -0.775347 0.258868
-2.53957 -0.762816 0.228042
-2.54381 -0.816454 0.20369
-2.60161 -0.924002 0.215122
-2.61453 -0.864059 0.263926
-2.77971 -1.23074 0.209357
-2.91763 -1.34493 0.28277
-2.80111 -1.16516 0.295039
-2.72794 -1.07933 0.278614
-2.67869 -1.06721 0.226831
-2.67952 -1.06874 0.22653
-3.03182 -1.39342 0.35238
-3.03022 -1.42659 0.329772
-3.21227 -1.46261 0.298529
-3.21081 -1.43112 0.320104
-3.14676 -1.30717 0.407138
-2.91763 -1.34493 0.28277
-3.03022 -1.42659 0.329772
-3.03182 -1.39342 0.35238
-2.80111 -1.16516 0.295039
-2.72794 -1.07933 0.278614
-2.80111 -1.16516 0.295039
-3.03182 -1.39342 0.35238
-3.14676 -1.30717 0.407138
-2.86745 -0.904338 0.354282
-2.57043 -0.775347 0.258868
-2.61453 -0.864059 0.263926
-2.54381 -0.816454 0.20369
-2.60186 -0.91313 0.0123684
-2.62161 -0.948954 0
-2.6475 -0.996854 0
-2.70367 -1.10635 0.100261
-2.67952 -1.06874 0.22653
-2.67869 -1.06721 0.226831
-2.60161 -0.924002 0.215122
-2.67952 -1.06874 0.22653
-2.70367 -1.10635 0.100261
-2.77971 -1.23074 0.209357
-2.60186 -0.91313 0.0123684
-2.60575 -0.917561 0
-2.62161 -0.948954 0
-2.53957 -0.762816 0.228042
-2.60879 -0.802615 0.016721
-2.61254 -0.828387 0
-2.60575 -0.917561 0
-2.60186 -0.91313 0.0123684
-2.54381 -0.816454 0.20369
-2.6475 -0.996854 0
-2.91373 -1.09044 0
-3.21227 -1.46261 0.298529
-3.03022 -1.42659 0.329772
-2.91763 -1.34493 0.28277
-2.77971 -1.23074 0.209357
-2.70367 -1.10635 0.100261
-2.60879 -0.802615 0.016721
-2.78644 -0.880951 0.0453707
-2.84463 -0.982824 0
-2.61254 -0.828387 0
-2.86745 -0.904338 0.354282
-2.78644 -0.880951 0.0453707
-2.60879 -0.802615 0.016721
-2.53957 -0.762816 0.228042
-2.57043 -0.775347 0.258868
-2.91006 -1.08113 0
-2.84463 -0.982824 0
-2.78644 -0.880951 0.0453707
-2.86745 -0.904338 0.354282
-3.14676 -1.30717 0.407138
-3.21081 -1.43112 0.320104
-3.21227 -1.46261 0.298529
-2.91373 -1.09044 0
-2.91006 -1.08113 0
-3.21081 -1.43112 0.320104
-2.61254 -0.828387 0
-2.84463 -0.982824 0
-2.91006 -1.08113 0
-2.91373 -1.09044 0
-2.6475 -0.996854 0
-2.62161 -0.948954 0
-2.60575 -0.917561 0
-1.74949 -0.115777 0.438561
-1.74528 -0.0843268 0.45
-1.58639 0.199265 0.45
-1.5052 -0.169305 0.204697
-1.70852 -0.238154 0.345167
-1.74614 -0.192787 0.398918
-1.51402 0.288147 0.403742
-1.44404 0.264765 0.313861
-1.43469 0.260344 0.30132
-1.35772 0.073762 0.136023
-1.31025 -0.0615362 0.0257324
-1.5052 -0.169305 0.204697
-1.58639 0.199265 0.45
-1.55271 0.292771 0.45
-1.35772 0.073762 0.136023
-1.37338 0.11172 0
-1.32057 -0.0340442 0
-1.31025 -0.0615362 0.0257324
-1.43469 0.260344 0.30132
-1.43422 0.25919 0
-1.37338 0.11172 0
-1.35772 0.073762 0.136023
-1.44404 0.264765 0.313861
-1.44381 0.263687 0
-1.43422 0.25919 0
-1.43469 0.260344 0.30132
-1.51402 0.288147 0.403742
-1.51388 0.286813 0
-1.44381 0.263687 0
-1.44404 0.264765 0.313861
-1.55271 0.292771 0.45
-1.6793 0.307407 0.45
-1.64078 0.302065 0.177961
-1.52608 0.288223 0
-1.51388 0.286813 0
-1.51402 0.288147 0.403742
-1.70976 0.227879 0.45
-1.72655 0.137654 0.330829
-1.64078 0.302065 0.177961
-1.6793 0.307407 0.45
-1.75214 -0.120557 0.40012
-1.74949 -0.115777 0.438561
-1.74614 -0.192787 0.398918
-1.70976 0.227879 0.45
-1.74528 -0.0843268 0.45
-1.74949 -0.115777 0.438561
-1.75214 -0.120557 0.40012
-1.72655 0.137654 0.330829
-1.50699 0.0242688 0
-1.52608 0.288223 0
-1.64078 0.302065 0.177961
-1.72655 0.137654 0.330829
-1.75214 -0.120557 0.40012
-1.74614 -0.192787 0.398918
-1.70852 -0.238154 0.345167
-1.31025 -0.0615362 0.0257324
-1.32057 -0.0340442 0
-1.50699 0.0242688 0
-1.70852 -0.238154 0.345167
-1.5052 -0.169305 0.204697
-1.74528 -0.0843268 0.45
-1.70976 0.227879 0.45
-1.6793 0.307407 0.45
-1.55271 0.292771 0.45
-1.58639 0.199265 0.45
-1.51388 0.286813 0
-1.52608 0.288223 0
-1.50699 0.0242688 0
-1.32057 -0.0340442 0
-1.37338 0.11172 0
-1.43422 0.25919 0
-1.44381 0.263687 0
-0.164703 0.199956 0.199076
-0.198916 0.0462228 0.142829
-0.226223 0.0215568 0.156147
-0.253746 0.113033 0.238645
-0.253851 0.114279 0.239493
-0.198916 0.0462228 0.142829
-0.15045 -0.0214341 0.0450677
-0.217828 -0.0177234 0.120879
-0.226223 0.0215568 0.156147
-0.13353 0.232333 0.183377
0.00713969 0.197422 0
-0.112589 -0.0239332 0
-0.15045 -0.0214341 0.0450677
-0.198916 0.0462228 0.142829
-0.164703 0.199956 0.199076
-0.481629 0.0747441 0.21514
-0.50985 0.0794881 0.218672
-0.253851 0.114279 0.239493
-0.253746 0.113033 0.238645
-0.217828 -0.0177234 0.120879
-0.347885 -0.0369632 0.109784
-0.366581 -0.0278501 0.118738
-0.481629 0.0747441 0.21514
-0.253746 0.113033 0.238645
-0.226223 0.0215568 0.156147
-0.782652 -0.0147477 0.114822
-0.790124 0.0573536 0.185538
-0.50985 0.0794881 0.218672
-0.481629 0.0747441 0.21514
-0.366581 -0.0278501 0.118738
-0.347885 -0.0369632 0.109784
-0.768803 -0.109236 0.0142224
-0.782652 -0.0147477 0.114822
-0.366581 -0.0278501 0.118738
-0.76212 -0.110728 0
-0.768803 -0.109236 0.0142224
-0.347885 -0.0369632 0.109784
-0.217828 -0.0177234 0.120879
-0.15045 -0.0214341 0.0450677
-0.112589 -0.0239332 0
-0.280527 0.369921 0.0693212
-0.248947 0.371396 0
0.00713969 0.197422 0
-0.13353 0.232333 0.183377
-0.790124 0.0573536 0.185538
-0.716488 0.167001 0.126962
-0.280527 0.369921 0.0693212
-0.13353 0.232333 0.183377
-0.164703 0.199956 0.199076
-0.253851 0.114279 0.239493
-0.50985 0.0794881 0.218672
-0.716488 0.167001 0.126962
-0.648448 0.174724 0
-0.248947 0.371396 0
-0.280527 0.369921 0.0693212
-0.76212 -0.110728 0
-0.648448 0.174724 0
-0.716488 0.167001 0.126962
-0.790124 0.0573536 0.185538
-0.782652 -0.0147477 0.114822
-0.768803 -0.109236 0.0142224
0.00713969 0.197422 0
-0.248947 0.371396 0
-0.648448 0.174724 0
-0.76212 -0.110728 0
-0.112589 -0.0239332 0
-2.2216 -0.479954 0.36603
-2.28687 -0.507694 0.338541
-2.35704 -0.435991 0.45
-2.23675 -0.42134 0.45
-2.01063 -0.387637 0.45
-2.00919 -0.389431 0.447227
-2.2216 -0.479954 0.36603
-2.23675 -0.42134 0.45
-2.20346 -0.125733 0.45
-2.00651 -0.383796 0.294498
-2.00919 -0.389431 0.447227
-2.01063 -0.387637 0.45
-2.40089 -0.122742 0.116237
-2.5808 0.0291302 0.45
-2.35704 -0.435991 0.45
-2.28687 -0.507694 0.338541
-2.20126 -0.460357 0
-2.28396 -0.288439 0
-2.28396 -0.288439 0
-2.12813 -0.428375 0
-2.00651 -0.383796 0.294498
-2.20346 -0.125733 0.45
-2.40556 0.0557486 0.45
-2.40089 -0.122742 0.116237
-2.40556 0.0557486 0.45
-2.5808 0.0291302 0.45
-2.40089 -0.122742 0.116237
-2.00919 -0.389431 0.447227
-2.00651 -0.383796 0.294498
-2.12813 -0.428375 0
-2.20126 -0.460357 0
-2.28687 -0.507694 0.338541
-2.2216 -0.479954 0.36603
-2.35704 -0.435991 0.45
-2.5808 0.0291302 0.45
-2.40556 0.0557486 0.45
-2.20346 -0.125733 0.45
-2.01063 -0.387637 0.45
-2.23675 -0.42134 0.45
-2.20126 -0.460357 0
-2.12813 -0.428375 0
-2.28396 -0.288439 0
-1.12812 1.48279 0.45
-1.01015 1.54245 0.45
-1.03312 1.47889 0.288955
-1.096 1.46418 0.341936
-1.096 1.46418 0.341936
-1.11761 1.45382 0.338022
-1.1688 1.46549 0.45
-1.12812 1.48279 0.45
-1.04794 1.43781 0.144451
-1.11761 1.45382 0.338022
-1.096 1.46418 0.341936
-1.03312 1.47889 0.288955
-1.04799 1.43738 0
-1.18329 1.46732 0
-1.1923 1.47069 0.45
-1.1688 1.46549 0.45
-1.11761 1.45382 0.338022
-1.04794 1.43781 0.144451
-1.42858 1.55117 0.45
-1.1923 1.47069 0.45
-1.18329 1.46732 0
-1.42683 1.55027 0
-1.01015 1.54245 0.45
-0.989493 1.59933 0.45
-0.994918 1.5835 0
-1.04799 1.43738 0
-1.04794 1.43781 0.144451
-1.03312 1.47889 0.288955
-1.42928 1.73531 0.45
-1.42746 1.71723 0
-0.994918 1.5835 0
-0.989493 1.59933 0.45
-1.42683 1.55027 0
-1.42746 1.71723 0
-1.42928 1.73531 0.45
-1.42858 1.55117 0.45
-1.42858 1.55117 0.45
-1.42928 1.73531 0.45
-0.989493 1.59933 0.45
-1.01015 1.54245 0.45
-1.12812 1.48279 0.45
-1.1688 1.46549 0.45
-1.1923 1.47069 0.45
-0.994918 1.5835 0
-1.42746 1.71723 0
-1.42683 1.55027 0
-1.18329 1.46732 0
-1.04799 1.43738 0
2.6817 1.72903 0
2.64646 1.67329 0.0308866
2.43045 1.62168 0.173111
2.46873 1.75 0.128559
2.67621 1.75 0
2.6817 1.72903 0
2.64909 1.66933 0
2.64646 1.67329 0.0308866
1.4679 1.2728 0.0530419
1.45648 1.26052 0
1.42192 1.3042 0
1.96126 1.47393 0.255991
1.4679 1.2728 0.0530419
1.42192 1.3042 0
1.86242 1.75 0
2.08991 1.75 0.156701
2.64909 1.66933 0
1.45648 1.26052 0
1.4679 1.2728 0.0530419
1.96126 1.47393 0.255991
2.43045 1.62168 0.173111
2.64646 1.67329 0.0308866
2.08991 1.75 0.156701
2.46873 1.75 0.128559
2.43045 1.62168 0.173111
1.96126 1.47393 0.255991
2.46873 1.75 0.128559
2.08991 1.75 0.156701
1.86242 1.75 0
2.67621 1.75 0
2.67621 1.75 0
1.86242 1.75 0
1.42192 1.3042 0
1.45648 1.26052 0
2.64909 1.66933 0
2.6817 1.72903 0
-3.21081 -1.43112 0.320104
-3.28695 -1.30295 0.409661
-3.20265 -1.26331 0.437693
-3.14676 -1.30717 0.407138
-3.28695 -1.30295 0.409661
-3.26355 -0.925275 0.398552
-3.14389 -0.659603 0.427561
-3.08968 -0.71977 0.45
-3.12935 -0.994476 0.45
-3.20265 -1.26331 0.437693
-3.12935 -0.994476 0.45
-3.04218 -0.765992 0.45
-2.86745 -0.904338 0.354282
-3.14676 -1.30717 0.407138
-3.20265 -1.26331 0.437693
-2.99042 -0.73864 0.215118
-3.0037 -0.730063 0.228258
-2.99045 -0.923181 0.0954603
-2.98081 -0.931723 0.0844196
-2.90784 -1.01863 0
-2.84463 -0.982824 0
-2.78644 -0.880951 0.0453707
-2.99042 -0.73864 0.215118
-2.98081 -0.931723 0.0844196
-2.78644 -0.880951 0.0453707
-2.86745 -0.904338 0.354282
-3.04218 -0.765992 0.45
-3.08968 -0.71977 0.45
-3.14389 -0.659603 0.427561
-3.0037 -0.730063 0.228258
-2.99042 -0.73864 0.215118
-2.91006 -1.08113 0
-3.21081 -1.43112 0.320104
-3.14676 -1.30717 0.407138
-2.86745 -0.904338 0.354282
-2.78644 -0.880951 0.0453707
-2.84463 -0.982824 0
-2.99045 -0.923181 0.0954603
-3.26355 -0.925275 0.398552
-3.28695 -1.30295 0.409661
-3.21081 -1.43112 0.320104
-2.91006 -1.08113 0
-2.90784 -1.01863 0
-2.98081 -0.931723 0.0844196
-3.26355 -0.925275 0.398552
-2.99045 -0.923181 0.0954603
-3.0037 -0.730063 0.228258
-3.14389 -0.659603 0.427561
-3.08968 -0.71977 0.45
-3.04218 -0.765992 0.45
-3.12935 -0.994476 0.45
-2.90784 -1.01863 0
-2.91006 -1.08113 0
[...]
CELL_DATA 3939
FIELD FieldData 6
weight 1 3939 float
 4.76113 4.76113 4.76113 4.76113 4.76113 4.76113 4.76113 4.76113 4.76113 4.76113 4.76113 4.76113 4.76113 4.76113 4.76113 4.76113 5.3084 5.3084 5.3084 5.3084 5.3084 5.3084 5.3084 5.3084 5.3084 5.3084 5.3084 5.3084 5.3084 5.3084 5.4085 5.4085 5.4085 5.4085 5.4085 5.4085 5.4085 5.4085 5.4085 5.4085 5.4085 5.4085 5.4085 5.41 5.41 5.41 5.41 5.41 5.41 5.41 5.41 5.41 5.76112 5.76112 5.76112 5.76112 5.76112 5.76112 5.76112 5.76112 5.76112 5.76112 5.17169 5.17169 5.17169 5.17169 5.17169 5.17169 5.17169 5.17169 4.79078 4.79078 4.79078 4.79078 4.79078 4.79078 4.79078 4.79078 4.79078 4.79078 4.79078 5.48937 5.48937 5.48937 5.48937 5.48937 5.48937 5.48937 5.48937 5.48937 5.48937 4.74728 4.74728 4.74728 4.74728 4.74728 4.74728 4.74728 4.74728 4.74728 4.74728 5.43336 5.43336 5.43336 5.43336 5.43336 5.43336 5.43336 5.43336 5.43336 5.23051 5.23051 5.23051 5.23051 5.23051 5.23051 5.23051 5.23051 5.23051 4.77988 4.77988 4.77988 4.77988 4.77988 4.77988 4.77988 4.77988 4.77988 4.77988 4.77988 4.77988 4.77988 5.70304 5.70304 5.70304 5.70304 5.70304 5.70304 5.70304 5.70304 5.70304 5.70304 5.70304 5.70304 4.95807 4.95807 4.95807 4.95807 4.95807 4.95807 4.95807 4.95807 4.95807 4.95807 5.4539 5.4539 5.4539 5.4539 5.4539 5.4539 5.4539 5.4539 5.4539 5.42178 5.42178 5.42178 5.42178 5.42178 5.42178 5.42178 5.42178 5.42178 5.42178 5.42178 5.42178 5.42178 5.21616 5.21616 5.21616 5.21616 5.21616 5.21616 5.21616 5.21616 5.21616 5.21616 5.21616 5.21616 6.29611 6.29611 6.29611 6.29611 6.29611 6.29611 6.29611 6.29611 6.29611 6.29611 4.66485 4.66485 4.66485 4.66485 4.66485 4.66485 4.66485 4.66485 4.66485 4.66485 4.66485 4.66485 4.66485 5.43693 5.43693 5.43693 5.43693 5.43693 5.43693 5.43693 5.43693 5.43693 5.43693 5.43693 4.52425 4.52425 4.52425 4.52425 4.52425 4.52425 4.52425 4.52425 4.52425 5.08839 5.08839 5.08839 5.08839 5.08839 5.08839 5.08839 5.08839 5.08839 5.08839 5.08839 5.08839 5.08839 5.08839 5.08839 5.02006 5.02006 5.02006 5.02006 5.02006 5.02006 5.02006 5.34196 5.34196 5.34196 5.34196 5.34196 5.34196 5.34196 5.34196 5.34196 5.34196 5.34196 5.34196 4.50825 4.50825 4.50825 4.50825 4.50825 4.50825 4.50825 4.50825 4.50825 4.50825 4.50825 4.50825 4.88579 4.88579 4.88579 4.88579 4.88579 4.88579 4.88579 4.88579 5.57937 5.57937 5.57937 5.57937 5.57937 5.57937 5.57937 5.57937 5.30692 5.30692 5.30692 5.30692 5.30692 5.30692 5.30692 5.30692 5.2614 5.2614 5.2614 5.2614 5.2614 5.2614 5.2614 5.2614 4.60814 4.60814 4.60814 4.60814 4.60814 4.60814 4.60814 4.60814 4.60814 4.60814 4.60814 4.60814 4.60814 4.60814 4.60814 4.60814 5.56748 5.56748 5.56748 5.56748 5.56748 5.56748 5.56748 5.56748 5.56748 6.53639 6.53639 6.53639 6.53639 6.53639 6.53639 6.53639 5.23563 5.23563 5.23563 5.23563 5.23563 5.23563 5.23563 5.23563 5.56594 5.56594 5.56594 5.56594 5.56594 5.56594 5.56594 5.56594 5.56594 5.56594 4.83729 4.83729 4.83729 4.83729 4.83729 4.83729 4.83729 4.83729 4.83729 4.83729 4.83729 5.25858 5.25858 5.25858 5.25858 5.25858 5.25858 5.25858 4.53416 4.53416 4.53416 4.53416 4.53416 4.53416 4.53416 4.53416 4.53416 4.53416 4.53416 4.53416 4.53416 4.83191 4.83191 4.83191 4.83191 4.83191 4.83191 4.83191 4.83191 4.55585 4.55585 4.55585 4.55585 4.55585 4.55585 4.55585 4.55585 4.55585 4.55585 4.55585 4.55585 4.55585 5.2072 5.2072 5.2072 5.2072 5.2072 5.2072 5.2072 5.2072 5.2072 5.2072 5.2072 5.2072 4.77543 4.77543 4.77543 4.77543 4.77543 4.77543 4.77543 4.77543 4.77543 4.77543 4.77543 4.77543 4.77543 4.82849 4.82849 4.82849 4.82849 4.82849 4.82849 4.82849 4.82849 4.82849 5.29551 5.29551 5.29551 5.29551 5.29551 5.29551 5.29551 5.29551 4.25856 4.25856 4.25856 4.25856 4.25856 4.25856 4.25856 4.25856 4.25856 4.25856 4.25856 5.06539 5.06539 5.06539 5.06539 5.06539 5.06539 5.06539 5.06539 5.06539 5.06539 5.69999 5.69999 5.69999 5.69999 5.69999 5.69999 5.69999 5.69999 5.69999 5.69999 5.48623 5.48623 5.48623 5.48623 5.48623 5.48623 5.48623 5.48623 5.48623 5.48623 5.48623 5.48623 5.48623 4.5603 4.5603 4.5603 4.5603 4.5603 4.5603 4.5603 4.5603 4.5603 4.5603 4.5603 4.5603 4.5603 4.5603 4.5603 5.06738 5.06738 5.06738 5.06738 5.06738 5.06738 5.06738 5.06738 5.06738 5.06738 5.65343 5.65343 5.65343 5.65343 5.65343 5.65343 5.65343 5.65343 5.65343 5.65343 5.51484 5.51484 5.51484 5.51484 5.51484 5.51484 5.51484 5.51484 5.51484 5.51484 5.51484 4.57548 4.57548 4.57548 4.57548 4.57548 4.57548 4.57548 4.57548 4.57548 4.57548 5.40636 5.40636 5.40636 5.40636 5.40636 5.40636 5.40636 5.50451 5.50451 5.50451 5.50451 5.50451 5.50451 5.50451 5.50451 5.50451 5.50451 5.6671 5.6671 5.6671 5.6671 5.6671 5.6671 5.6671 5.6671 5.6671 5.27034 5.27034 5.27034 5.27034 5.27034 5.27034 5.27034 5.27034 4.2644 4.2644 4.2644 4.2644 4.2644 4.2644 4.2644 4.2644 4.2644 4.2644 4.2644 4.2644 4.2644 4.2644 4.2644 4.2644 4.2644 4.75588 4.75588 4.75588 4.75588 4.75588 4.75588 4.75588 4.75588 4.75588 4.75588 4.75588 4.75588 5.71015 5.71015 5.71015 5.71015 5.71015 5.71015 5.71015 5.71015 5.71015 5.71015 5.25362 5.25362 5.25362 5.25362 5.25362 5.25362 5.25362 5.25362 5.25362 5.25362 5.25362 5.25362 5.25362 5.05218 5.05218 5.05218 5.05218 5.05218 5.05218 5.05218 5.05218 6.96497 6.96497 6.96497 6.96497 6.96497 6.96497 6.96497 6.96497 4.55246 4.55246 4.55246 4.55246 4.55246 4.55246 4.55246 4.55246 4.55246 4.55246 4.55246 4.55246 5.67811 5.67811 5.67811 5.67811 5.67811 5.67811 5.67811 5.67811 5.67811 5.2962 5.2962 5.2962 5.2962 5.2962 5.2962 5.2962 5.2962 5.2962 5.2962 5.2962 4.758 4.758 4.758 4.758 4.758 4.758 4.758 4.758 4.758 4.71235 4.71235 4.71235 4.71235 4.71235 4.71235 4.71235 4.71235 4.71235 4.71235 4.71235 4.71235 4.71235 4.71235 4.45765 4.45765 4.45765 4.45765 4.45765 4.45765 4.45765 4.45765 4.45765 4.45765 4.45765 4.45765 4.45765 4.45765 5.63403 5.63403 5.63403 5.63403 5.63403 5.63403 5.63403 5.63403 5.63403 5.63403 5.15486 5.15486 5.15486 5.15486 5.15486 5.15486 5.15486 5.15486 5.15486 5.15486 4.39245 4.39245 4.39245 4.39245 4.39245 4.39245 4.39245 4.39245 4.39245 4.39245 4.39245 4.39245 4.39245 4.39245 4.39245 5.60089 5.60089 5.60089 5.60089 5.60089 5.60089 5.60089 5.60089 5.645 5.645 5.645 5.645 5.645 5.645 5.645 5.645 5.645 5.645 4.4935 4.4935 4.4935 4.4935 4.4935 4.4935 4.4935 4.4935 4.4935 4.4935 4.4935 4.4935 4.4935 5.12571 5.12571 5.12571 5.12571 5.12571 5.12571 5.12571 5.12571 5.12571 5.12571 5.21412 5.21412 5.21412 5.21412 5.21412 5.21412 5.21412 5.21412 4.25101 4.25101 4.25101 4.25101 4.25101 4.25101 4.25101 4.25101 4.25101 4.25101 4.25101 4.25101 4.25101 4.25101 4.50571 4.50571 4.50571 4.50571 4.50571 4.50571 4.50571 4.50571 4.50571 4.50571 4.50571 5.66875 5.66875 5.66875 5.66875 5.66875 5.66875 5.66875 5.20157 5.20157 5.20157 5.20157 5.20157 5.20157 5.20157 5.20157 5.20157 5.30903 5.30903 5.30903 5.30903 5.30903 5.30903 5.30903 5.30903 5.30903 5.44461 5.44461 5.44461 5.44461 5.44461 5.44461 5.44461 5.44461 5.44461 5.44461 5.44461 5.44461 4.93876 4.93876 4.93876 4.93876 4.93876 4.93876 4.93876 4.93876 5.37862 5.37862 5.37862 5.37862 5.37862 5.37862 5.37862 5.37862 5.27916 5.27916 5.27916 5.27916 5.27916 5.27916 5.27916 5.27916 5.27916 5.27916 4.11948 4.11948 4.11948 4.11948 4.11948 4.11948 4.11948 4.11948 4.11948 4.11948 4.11948 5.47377 5.47377 5.47377 5.47377 5.47377 5.47377 5.47377 5.5286 5.5286 5.5286 5.5286 5.5286 5.5286 5.5286 5.5286 5.5286 4.70197 4.70197 4.70197 4.70197 4.70197 4.70197 4.70197 4.70197 4.70197 4.70197 4.70197 4.70197 4.70197 5.78089 5.78089 5.78089 5.78089 5.78089 5.78089 4.45075 4.45075 4.45075 4.45075 4.45075 4.45075 4.45075 4.45075 4.45075 4.70529 4.70529 4.70529 4.70529 4.70529 4.70529 4.70529 4.70529 4.47671 4.47671 4.47671 4.47671 4.47671 4.47671 4.47671 4.47671 4.47671 4.47671 4.47671 5.41044 5.41044 5.41044 5.41044 5.41044 5.41044 5.41044 5.61201 5.61201 5.61201 5.61201 5.61201 5.61201 5.61201 5.26088 5.26088 5.26088 5.26088 5.26088 5.26088 5.26088 5.26088 4.59221 4.59221 4.59221 4.59221 4.59221 4.59221 4.59221 4.59221 4.59221 5.82377 5.82377 5.82377 5.82377 5.82377 5.82377 5.82377 5.82377 5.82377 5.20796 5.20796 5.20796 5.20796 5.20796 5.20796 5.20796 5.20796 5.20796 5.20796 5.20796 5.20796 4.5336 4.5336 4.5336 4.5336 4.5336 4.5336 4.5336 4.5336 4.5336 4.5336 4.5336 4.5336 4.5336 4.5336 4.5336 4.5336 5.42234 5.42234 5.42234 5.42234 5.42234 5.42234 5.42234 5.42234 5.42234 5.42234 5.42234 5.42234 4.53661 4.53661 4.53661 4.53661 4.53661 4.53661 4.53661 4.53661 4.53661 4.53661 4.53661 4.53661 4.53661 4.53661 4.53661 4.72491 4.72491 4.72491 4.72491 4.72491 4.72491 4.72491 4.72491 4.72491 4.72491 4.72491 4.72491 4.72909 4.72909 4.72909 4.72909 4.72909 4.72909 4.72909 4.72909 4.72909 4.72909 4.37425 4.37425 4.37425 4.37425 4.37425 4.37425 4.37425 4.37425 4.37425 4.37425 4.59827 4.59827 4.59827 4.59827 4.59827 4.59827 4.59827 4.59827 4.59827 4.59827 4.89528 4.89528 4.89528 4.89528 4.89528 4.89528 4.89528 4.89528 4.89528 4.89528 4.89528 5.39966 5.39966 5.39966 5.39966 5.39966 5.39966 5.39966 5.39966 5.39966 5.39966 5.39966 5.39966 6.1186 6.1186 6.1186 6.1186 6.1186 6.1186 6.1186 6.1186 4.30863 4.30863 4.30863 4.30863 4.30863 4.30863 4.30863 4.30863 4.30863 4.30863 4.30863 4.30863 4.30863 4.30863 4.71971 4.71971 4.71971 4.71971 4.71971 4.71971 4.71971 4.71971 4.71971 4.71971 4.71971 4.71971 4.71971 4.71971 4.95875 4.95875 4.95875 4.95875 4.95875 4.95875 4.95875 4.95875 4.95875 4.95875 4.95875 5.32131 5.32131 5.32131 5.32131 5.32131 5.32131 5.32131 5.32131 5.32131 5.32131 5.32131 5.32131 4.21027 4.21027 4.21027 4.21027 4.21027 4.21027 4.21027 4.21027 4.21027 4.21027 4.21027 4.21027 4.21027 4.21027 4.21027 4.59569 4.59569 4.59569 4.59569 4.59569 4.59569 4.59569 4.59569 4.59569 4.59569 4.59569 4.59569 4.59569 4.84693 4.84693 4.84693 4.84693 4.84693 4.84693 4.84693 4.84693 5.23533 5.23533 5.23533 5.23533 5.23533 5.23533 5.23533 5.23533 5.23533 5.23533 4.67195 4.67195 4.67195 4.67195 4.67195 4.67195 4.67195 4.67195 4.67195 4.67195 4.67195 4.67195 4.64723 4.64723 4.64723 4.64723 4.64723 4.64723 4.64723 4.64723 4.64723 4.64723 4.61168 4.61168 4.61168 4.61168 4.61168 4.61168 4.61168 4.61168 4.61168 4.61168 4.61168 4.61168 4.61168 5.25024 5.25024 5.25024 5.25024 5.25024 5.25024 5.25024 5.25024 5.25024 5.25024 5.25024 5.25024 5.25024 5.39367 5.39367 5.39367 5.39367 5.39367 5.39367 5.39367 5.39367 5.39367 5.39367 5.39367 5.39367 5.39367 5.39367 4.50193 4.50193 4.50193 4.50193 4.50193 4.50193 4.50193 4.50193 4.50193 4.50193 4.50193 4.50193 5.26568 5.26568 5.26568 5.26568 5.26568 5.26568 5.26568 5.26568 5.26568 5.26568 4.61507 4.61507 4.61507 4.61507 4.61507 4.61507 4.61507 4.61507 4.61507 4.61507 4.61507 4.61507 4.61507 4.4871 4.4871 4.4871 4.4871 4.4871 4.4871 4.4871 4.4871 4.4871 4.4871 4.4871 4.4871 4.4871 5.64037 5.64037 5.64037 5.64037 5.64037 5.64037 5.64037 5.64037 5.64037 4.58675 4.58675 4.58675 4.58675 4.58675 4.58675 4.58675 4.58675 4.58675 4.58675 4.58675 4.58675 5.25859 5.25859 5.25859 5.25859 5.25859 5.25859 5.25859 5.26132 5.26132 5.26132 5.26132 5.26132 5.26132 5.26132 5.26132 5.26132 5.26132 5.26132 5.26132 5.26132 5.26132 5.26132 4.74383 4.74383 4.74383 4.74383 4.74383 4.74383 4.74383 4.74383 4.74383 4.74383 4.74383 4.41872 4.41872 4.41872 4.41872 4.41872 4.41872 4.41872 4.41872 4.41872 4.41872 4.41872 4.41872 4.41872 5.25837 5.25837 5.25837 5.25837 5.25837 5.25837 5.25837 5.25837 5.25837 5.25837 5.1863 5.1863 5.1863 5.1863 5.1863 5.1863 5.1863 5.1863 5.1863 5.1863 5.1863 5.1863 5.43657 5.43657 5.43657 5.43657 5.43657 5.43657 5.43657 5.43657 5.43657 5.43657 5.43657 5.43657 5.43657 4.33826 4.33826 4.33826 4.33826 4.33826 4.33826 4.33826 4.33826 4.33826 4.33826 4.33826 4.33826 4.33826 5.52012 5.52012 5.52012 5.52012 5.52012 5.52012 5.52012 5.52012 4.33282 4.33282 4.33282 4.33282 4.33282 4.33282 4.33282 4.33282 4.33282 4.33282 4.33282 4.33282 4.33282 4.33282 4.68501 4.68501 4.68501 4.68501 4.68501 4.68501 4.68501 4.68501 4.68501 4.68501 4.68501 4.68501 4.7507 4.7507 4.7507 4.7507 4.7507 4.7507 4.7507 4.7507 4.7507 4.7507 4.7507 4.7507 5.38826 5.38826 5.38826 5.38826 5.38826 5.38826 5.38826 5.38826 5.38826 5.38826 5.38826 5.38826 5.38826 5.38826 5.35584 5.35584 5.35584 5.35584 5.35584 5.35584 5.35584 5.35584 4.86729 4.86729 4.86729 4.86729 4.86729 4.86729 4.86729 4.86729 4.86729 4.86729 4.86729 4.86729 4.32128 4.32128 4.32128 4.32128 4.32128 4.32128 4.32128 4.32128 4.32128 4.32128 4.32128 4.32128 4.32128 4.32128 4.32128 4.32128 4.32128 5.3564 5.3564 5.3564 5.3564 5.3564 5.3564 5.3564 5.4282 5.4282 5.4282 5.4282 5.4282 5.4282 5.4282 5.4282 5.4282 4.99153 4.99153 4.99153 4.99153 4.99153 4.99153 4.99153 4.99153 4.99153 4.99153 5.19287 5.19287 5.19287 5.19287 5.19287 5.19287 5.19287 5.19287 5.19287 5.19287 5.19287 5.19287 5.19287 5.19287 4.35392 4.35392 4.35392 4.35392 4.35392 4.35392 4.35392 4.35392 4.35392 4.35392 5.35049 5.35049 5.35049 5.35049 5.35049 5.35049 5.35049 5.35049 5.35049 5.35049 5.62694 5.62694 5.62694 5.62694 5.62694 5.62694 5.62694 5.62694 5.24177 5.24177 5.24177 5.24177 5.24177 5.24177 4.76068 4.76068 4.76068 4.76068 4.76068 4.76068 4.76068 4.76068 4.76068 4.47595 4.47595 4.47595 4.47595 4.47595 4.47595 4.47595 4.47595 4.47595 4.47595 4.47595 4.47595 5.63562 5.63562 5.63562 5.63562 5.63562 5.63562 5.63562 5.63562 5.63562 5.63562 5.63562 5.26121 5.26121 5.26121 5.26121 5.26121 5.26121 5.26121 5.26121 5.26121 5.26121 5.26121 5.26121 5.26121 5.26121 4.51407 4.51407 4.51407 4.51407 4.51407 4.51407 4.51407 4.51407 4.51407 4.51407 4.51407 4.51407 4.51407 4.51407 5.6181 5.6181 5.6181 5.6181 5.6181 5.6181 5.6181 5.6181 5.6181 5.51103 5.51103 5.51103 5.51103 5.51103 5.51103 5.51103 5.51103 4.49416 4.49416 4.49416 4.49416 4.49416 4.49416 4.49416 4.49416 4.49416 4.49416 4.49416 4.49416 4.49416 4.68151 4.68151 4.68151 4.68151 4.68151 4.68151 4.68151 4.68151 4.68151 4.68151 4.68151 4.68151 4.68151 4.68151 4.68151 4.68151 4.68151 4.68151 4.46407 4.46407 4.46407 4.46407 4.46407 4.46407 4.46407 4.46407 4.46407 4.46407 4.46407 4.46407 4.46407 4.46407 5.51693 5.51693 5.51693 5.51693 5.51693 5.51693 5.51693 5.26345 5.26345 5.26345 5.26345 5.26345 5.26345 5.26345 5.26345 5.26345 5.26345 5.26345 5.26345 5.26345 5.26345 5.16443 5.16443 5.16443 5.16443 5.16443 5.16443 5.16443 5.16443 5.16443 5.16443 5.16443 4.61181 4.61181 4.61181 4.61181 4.61181 4.61181 4.61181 4.61181 4.61181 4.61181 4.61181 5.56805 5.56805 5.56805 5.56805 5.56805 5.56805 5.56805 5.56805 5.56805 5.56805 5.56805 5.56805 5.56805 5.07095 5.07095 5.07095 5.07095 5.07095 5.07095 5.07095 5.07095 5.07095 5.07095 5.07095 5.07095 5.07095 5.07095 5.14254 5.14254 5.14254 5.14254 5.14254 5.14254 5.14254 5.14254 5.14254 5.14254 4.61851 4.61851 4.61851 4.61851 4.61851 4.61851 4.61851 4.61851 4.61851 4.61851 4.61851 4.61851 4.61851 4.9691 4.9691 4.9691 4.9691 4.9691 4.9691 4.9691 4.9691 4.9691 4.73225 4.73225 4.73225 4.73225 4.73225 4.73225 4.73225 4.73225 4.73225 4.73225 4.35647 4.35647 4.35647 4.35647 4.35647 4.35647 4.35647 4.35647 4.35647 4.35647 4.35647 4.35647 4.93282 4.93282 4.93282 4.93282 4.93282 4.93282 4.93282 4.93282 4.93282 4.93282 4.93282 4.46679 4.46679 4.46679 4.46679 4.46679 4.46679 4.46679 4.46679 4.46679 4.46679 4.46679 4.46679 4.46679 4.46679 4.46679 4.46679 4.46679 4.46679 5.48506 5.48506 5.48506 5.48506 5.48506 5.48506 5.48506 5.48506 5.48506 5.48506 5.48506 5.48506 5.48506 5.48506 5.48506 4.61833 4.61833 4.61833 4.61833 4.61833 4.61833 4.61833 4.61833 4.61833 5.65406 5.65406 5.65406 5.65406 5.65406 5.65406 5.65406 5.65406 4.70226 4.70226 4.70226 4.70226 4.70226 4.70226 4.70226 4.70226 4.70226 4.70226 4.70226 4.70226 4.70226 4.70226 5.17176 5.17176 5.17176 5.17176 5.17176 5.17176 5.17176 5.68484 5.68484 5.68484 5.68484 5.68484 5.68484 5.68484 5.68484 5.68484 4.44982 4.44982 4.44982 4.44982 4.44982 4.44982 4.44982 4.44982 4.44982 4.44982 5.19346 5.19346 5.19346 5.19346 5.19346 5.19346 5.19346 5.19346 5.24121 5.24121 5.24121 5.24121 5.24121 5.24121 5.24121 5.24121 5.24121 5.24121 5.24121 5.24121 5.24121 5.24121 5.24121 5.24121 5.24121 5.24121 5.24121 5.24121 5.65842 5.65842 5.65842 5.65842 5.65842 5.65842 5.65842 5.65842 4.81325 4.81325 4.81325 4.81325 4.81325 4.81325 4.81325 4.81325 4.81325 4.81325 4.81325 4.81325 6.07501 6.07501 6.07501 6.07501 6.07501 6.07501 6.07501 4.62215 4.62215 4.62215 4.62215 4.62215 4.62215 4.62215 4.62215 4.62215 4.62215 5.4346 5.4346 5.4346 5.4346 5.4346 5.4346 5.4346 5.4346 5.4346 5.4346 5.4346 5.4346 5.4346 5.4346 5.15565 5.15565 5.15565 5.15565 5.15565 5.15565 5.15565 5.15565 5.15565 4.78396 4.78396 4.78396 4.78396 4.78396 4.78396 4.78396 4.78396 4.78396 4.78396 4.78396 4.55622 4.55622 4.55622 4.55622 4.55622 4.55622 4.55622 4.55622 4.55622 4.55622 4.55622 4.55622 4.55622 4.55622 5.80153 5.80153 5.80153 5.80153 5.80153 5.80153 5.80153 5.464 5.464 5.464 5.464 5.464 5.464 5.464 5.464 5.464 5.464 4.36108 4.36108 4.36108 4.36108 4.36108 4.36108 4.36108 4.36108 4.36108 4.36108 4.36108 4.36108 4.36108 4.36108 4.36108 4.36108 4.36108 4.36108 4.36108 4.77071 4.77071 4.77071 4.77071 4.77071 4.77071 4.77071 4.77071 4.77071 4.77071 4.77071 4.77071 5.87442 5.87442 5.87442 5.87442 5.87442 5.87442 5.87442 5.87442 5.87442 5.46209 5.46209 5.46209 5.46209 5.46209 5.46209 5.46209 5.46209 5.46209 4.78619 4.78619 4.78619 4.78619 4.78619 4.78619 4.78619 4.78619 4.78619 4.78619 4.78619 4.39211 4.39211 4.39211 4.39211 4.39211 4.39211 4.39211 4.39211 4.39211 4.39211 4.39211 4.39211 4.39211 4.39211 4.64086 4.64086 4.64086 4.64086 4.64086 4.64086 4.64086 4.64086 4.64086 4.64086 4.64086 5.46312 5.46312 5.46312 5.46312 5.46312 5.46312 5.46312 5.46312 5.46312 5.46312 5.46312 5.24103 5.24103 5.24103 5.24103 5.24103 5.24103 5.24103 5.24103 5.24103 5.24103 4.981 4.981 4.981 4.981 4.981 4.981 4.981 4.981 4.981 4.981 4.981 4.981 4.981 4.981 4.981 4.5648 4.5648 4.5648 4.5648 4.5648 4.5648 4.5648 4.5648 4.5648 4.5648 4.5648 4.5648 5.78758 5.78758 5.78758 5.78758 5.78758 5.78758 5.78758 5.78758 5.78758 5.17228 5.17228 5.17228 5.17228 5.17228 5.17228 5.17228 5.17228 5.17228 5.17228 5.17228 4.86071 4.86071 4.86071 4.86071 4.86071 4.86071 4.86071 4.86071 4.86071 4.86071 4.86071 4.86071 4.86071 4.86071 4.86071 4.86071 5.02364 5.02364 5.02364 5.02364 5.02364 5.02364 5.02364 5.02364 5.02364 5.02364 5.02364 5.02364 5.02364 5.02364 5.1772 5.1772 5.1772 5.1772 5.1772 5.1772 5.1772 4.75062 4.75062 4.75062 4.75062 4.75062 4.75062 4.75062 4.75062 4.75062 4.75062 4.75062 4.29988 4.29988 4.29988 4.29988 4.29988 4.29988 4.29988 4.29988 4.29988 4.29988 4.29988 4.29988 4.29988 4.29988 5.4107 5.4107 5.4107 5.4107 5.4107 5.4107 5.4107 5.4107 5.4107 5.4107 4.50476 4.50476 4.50476 4.50476 4.50476 4.50476 4.50476 4.50476 4.50476 4.50476 4.50476 4.50476 4.50476 4.79979 4.79979 4.79979 4.79979 4.79979 4.79979 4.79979 4.79979 4.79979 4.79979 4.79979 4.51297 4.51297 4.51297 4.51297 4.51297 4.51297 4.51297 4.51297 4.51297 4.51297 4.51297 4.51297 4.51297 4.36427 4.36427 4.36427 4.36427 4.36427 4.36427 4.36427 4.36427 4.36427 4.36427 4.36427 4.36427 4.36427 5.43929 5.43929 5.43929 5.43929 5.43929 5.43929 5.43929 5.43929 5.43929 5.43929 5.43929 5.43929 5.43929 5.16476 5.16476 5.16476 5.16476 5.16476 5.16476 5.16476 5.16476 5.16476 4.549 4.549 4.549 4.549 4.549 4.549 4.549 4.549 4.549 4.549 4.7639 4.7639 4.7639 4.7639 4.7639 4.7639 4.7639 4.7639 4.7639 4.7639 4.7639 4.7639 4.7639 5.43274 5.43274 5.43274 5.43274 5.43274 5.43274 5.43274 5.43274 5.43274 5.43274 5.43274 4.52445 4.52445 4.52445 4.52445 4.52445 4.52445 4.52445 4.52445 4.52445 4.52445 4.52445 4.52445 4.52445 4.52445 4.52445 4.52445 4.32995 4.32995 4.32995 4.32995 4.32995 4.32995 4.32995 4.32995 4.32995 4.32995 4.32995 4.32995 4.32995 4.60298 4.60298 4.60298 4.60298 4.60298 4.60298 4.60298 4.60298 4.60298 4.60298 5.43723 5.43723 5.43723 5.43723 5.43723 5.43723 5.43723 5.43723 4.75285 4.75285 4.75285 4.75285 4.75285 4.75285 4.75285 4.75285 4.75285 4.75285 4.75285 4.75285 4.75285 4.85375 4.85375 4.85375 4.85375 4.85375 4.85375 4.85375 4.85375 4.85375 4.85375 4.85375 4.85375 4.85375 4.85375 4.85375 4.85375 4.62618 4.62618 4.62618 4.62618 4.62618 4.62618 4.62618 4.62618 4.62618 4.62618 4.62618 4.62618 4.62618 4.62618 5.47067 5.47067 5.47067 5.47067 5.47067 5.47067 5.47067 5.47067 5.47067 5.47067 4.51865 4.51865 4.51865 4.51865 4.51865 4.51865 4.